 &FCI NORB=  30,NELEC=24,MS2=0,
  ORBSYM=1,3,2,7,6,5,3,2,1,1,4,1,5,8,5,5,6,7,1,5,6,7,1,4,1,3,2,8,5,5
  ISYM=1,
 &END
 0.676498034618235    1    1    1    1
 0.6121320635061747    1    1    2    2
 0.61213206350636    1    1    3    3
 0.6156759296765248    1    1    4    4
 0.6156759296767105    1    1    5    5
 0.6861530010099045    1    1    6    6
 -0.0008401610292433741    1    1    7    2
 0.5832860373430541    1    1    7    7
 -0.0008401610292413833    1    1    8    3
 0.5832860373430613    1    1    8    8
 -0.0181599582975667    1    1    9    1
 0.290078543647358    1    1    9    9
 0.01696964337493585    1    1   10    1
 0.05222146475609677    1    1   10    9
 0.6078369997206171    1    1   10   10
 0.518990353049426    1    1   11   11
 1.294495405141206e-09    1    1   12    1
 -1.146343441936754e-09    1    1   12    9
 1.114468401176909e-08    1    1   12   10
 0.5189903530042342    1    1   12   12
 -1.405438081763004e-09    1    1   13    6
 0.569689678077866    1    1   13   13
 0.5696896780865529    1    1   14   14
 0.03085915587950906    1    1   15    6
 -5.750406978780476e-09    1    1   15   13
 0.653636365940954    1    1   15   15
 0.03504123690019306    1    1   16    6
 -5.815259917034146e-09    1    1   16   13
 -0.0007551993619926469    1    1   16   15
 0.2771988741814297    1    1   16   16
 0.01337178785637665    1    1   17    5
 0.6330764334936908    1    1   17   17
 0.01337178785635175    1    1   18    4
 0.6330764334937016    1    1   18   18
 0.003299890483893318    1    1   19    1
 -0.075355325151615    1    1   19    9
 0.07603991965935102    1    1   19   10
 6.000170375818832e-09    1    1   19   12
 0.2213178243176396    1    1   19   19
 0.01673545104962387    1    1   20    6
 6.165585962360136e-10    1    1   20   13
 0.004686993263880923    1    1   20   15
 0.04619782311216412    1    1   20   16
 0.1502554524113762    1    1   20   20
 0.04344501122439091    1    1   21    5
 -0.0740792735269475    1    1   21   17
 0.3324341645183518    1    1   21   21
 0.04344501122437599    1    1   22    4
 -0.07407927352692843    1    1   22   18
 0.332434164518343    1    1   22   22
 0.02387047155985963    1    1   23    1
 -0.0423452946601072    1    1   23    9
 -0.09793055603400427    1    1   23   10
 -4.525752807824077e-09    1    1   23   12
 0.006180122998795817    1    1   23   19
 0.3686907708549512    1    1   23   23
 -0.1265345748116205    1    1   24   11
 0.4063209659159296    1    1   24   24
 1.37905451371942e-09    1    1   25    1
 1.293504971589381e-09    1    1   25    9
 8.024426417965632e-09    1    1   25   10
 -0.1265345748317398    1    1   25   12
 3.259326798730809e-10    1    1   25   19
 -2.172082942694009e-09    1    1   25   23
 0.4063209659611208    1    1   25   25
 -0.02473807289725208    1    1   26    2
 -0.1186595790287928    1    1   26    7
 0.4195573182916115    1    1   26   26
 -0.02473807289727009    1    1   27    3
 -0.1186595790287893    1    1   27    8
 0.4195573182916053    1    1   27   27
 -0.09286291942602512    1    1   28   14
 0.3405556227903256    1    1   28   28
 0.02438682373700795    1    1   29    6
 5.604163196826204e-09    1    1   29   13
 -0.09053449448447828    1    1   29   15
 -0.01906008502393582    1    1   29   16
 -0.01076332451838185    1    1   29   20
 0.352866106067572    1    1   29   29
 -5.04005133465524e-11    1    1   30    6
 -0.09286291943674053    1    1   30   13
 -6.150044820867896e-09    1    1   30   15
 1.908523523883928e-09    1    1   30   16
 2.292450566225536e-12    1    1   30   20
 -2.752930668411756e-11    1    1   30   29
 0.3405556227990112    1    1   30   30
 0.03005566556826079    2    1    2    1
 0.02683517243568723    2    1    6    4
 -0.01296212028325021    2    1    7    1
 -0.001429356239393359    2    1    9    2
 0.001683476095830686    2    1    9    7
 0.007960443029110748    2    1   10    2
 0.009818865178522153    2    1   10    7
 -0.008040205891015874    2    1   11    3
 0.01648492095491012    2    1   11    8
 0.008040206707370668    2    1   12    2
 -0.01648491984293655    2    1   12    7
 0.01164698727918682    2    1   13    4
 -0.01164698796304036    2    1   14    5
 0.01102131518948865    2    1   15    4
 0.003452660652747021    2    1   16    4
 0.01760699388313887    2    1   17   14
 -0.007893446327628409    2    1   18    6
 -0.01760699468815274    2    1   18   13
 0.01150829592878866    2    1   18   15
 -0.0009472201075216076    2    1   18   16
 0.002265751580726949    2    1   19    2
 0.002213533446969943    2    1   19    7
 0.001728410035862873    2    1   20    4
 -0.0003171309437112082    2    1   20   18
 -0.004222713880354785    2    1   21   14
 0.003994352679425627    2    1   22    6
 0.004222714099999876    2    1   22   13
 -0.0008522318898520718    2    1   22   15
 0.008061996069364141    2    1   22   16
 0.003427402666181906    2    1   22   20
 0.0005993930509967202    2    1   23    2
 -0.001486937574954883    2    1   23    7
 0.006152266992205569    2    1   24    3
 -0.008495296928687435    2    1   24    8
 -0.006152266958662651    2    1   25    2
 0.008495296846132353    2    1   25    7
 0.004757585519622304    2    1   26    1
 -0.006058138963758748    2    1   26    9
 -0.003953739966740363    2    1   26   10
 0.005072033368364623    2    1   26   12
 0.003013161653263478    2    1   26   19
 0.006317536268620022    2    1   26   23
 -0.006584878792781519    2    1   26   25
 -0.005072033976200277    2    1   27   11
 0.006584879157213098    2    1   27   24
 0.003208797471246608    2    1   28    5
 -0.005023495578471405    2    1   28   17
 0.006156411305610593    2    1   28   21
 -0.002035727173364977    2    1   29    4
 -0.003038378196982283    2    1   29   18
 0.0007334568951691203    2    1   29   22
 -0.003208797467254986    2    1   30    4
 0.005023495585766545    2    1   30   18
 -0.006156411307005078    2    1   30   22
 0.6121320635061747    2    2    1    1
 0.6665184299725714    2    2    2    2
 0.6113496413661023    2    2    3    3
 0.6695335963340846    2    2    4    4
 0.6131599092922715    2    2    5    5
 0.6303017050496676    2    2    6    6
 0.0170337719080373    2    2    7    2
 0.5802430328671715    2    2    7    7
 0.01706245924857168    2    2    8    3
 0.5468911775564786    2    2    8    8
 -0.01151270939168581    2    2    9    1
 0.2919972122542001    2    2    9    9
 0.0434210373510393    2    2   10    1
 0.04448850228939722    2    2   10    9
 0.5707271475254652    2    2   10   10
 0.546937309578586    2    2   11   11
 0.004641760988773409    2    2   12    1
 0.00362408268976235    2    2   12    9
 0.01820183529234671    2    2   12   10
 0.546937313676258    2    2   12   12
 -0.003974268360917793    2    2   13    6
 0.6023329056984279    2    2   13   13
 0.6023329083828401    2    2   14   14
 0.05148346899339814    2    2   15    6
 0.01964417589125456    2    2   15   13
 0.615004763759024    2    2   15   15
 0.02860663915605885    2    2   16    6
 0.0002331623859818006    2    2   16   13
 0.0004760716541287834    2    2   16   15
 0.2720386979935265    2    2   16   16
 0.03906432505304917    2    2   17    5
 0.595372156849758    2    2   17   17
 0.0444329521120985    2    2   18    4
 0.6344299839905909    2    2   18   18
 0.00747621064230207    2    2   19    1
 -0.07966071396039197    2    2   19    9
 0.0713876191017269    2    2   19   10
 0.001382487204371397    2    2   19   12
 0.2241253803562468    2    2   19   19
 0.0139837653129559    2    2   20    6
 0.0003220152830284386    2    2   20   13
 0.004857049345553852    2    2   20   15
 0.04421255507404777    2    2   20   16
 0.1480720848132908    2    2   20   20
 0.0385696312238509    2    2   21    5
 -0.0656385294279842    2    2   21   17
 0.3184744666056619    2    2   21   21
 0.04440837661893688    2    2   22    4
 -0.07220191050567216    2    2   22   18
 0.3288805454943708    2    2   22   22
 0.01190884010523998    2    2   23    1
 -0.03039312694580611    2    2   23    9
 -0.08919750290670721    2    2   23   10
 -0.005182701370324655    2    2   23   12
 0.002883041154955964    2    2   23   19
 0.3478049295177494    2    2   23   23
 -0.1378043757579065    2    2   24   11
 0.4243377661451456    2    2   24   24
 -0.004081103206177063    2    2   25    1
 0.005954939065083253    2    2   25    9
 -0.0115424778186534    2    2   25   10
 -0.1378043771490264    2    2   25   12
 -0.007077897795209281    2    2   25   19
 0.004495685305920471    2    2   25   23
 0.4243377667112384    2    2   25   25
 -0.03762469642350492    2    2   26    2
 -0.1122889575188609    2    2   26    7
 0.4313264111147436    2    2   26   26
 -0.03349920821755151    2    2   27    3
 -0.1022742774416097    2    2   27    8
 0.4120251482759366    2    2   27   27
 -0.1023956904757052    2    2   28   14
 0.3498961838868916    2    2   28   28
 0.01775006571450291    2    2   29    6
 -0.004332317814827236    2    2   29   13
 -0.07979093906039046    2    2   29   15
 -0.0327438863019919    2    2   29   16
 -0.01646637098218474    2    2   29   20
 0.3474433955900058    2    2   29   29
 0.00231255118524392    2    2   30    6
 -0.102395690255499    2    2   30   13
 -0.004937042901345006    2    2   30   15
 -0.005713310180506245    2    2   30   16
 -0.002330387921454661    2    2   30   20
 0.007715512330491657    2    2   30   29
 0.3498961838629182    2    2   30   30
 0.0300556655682317    3    1    3    1
 0.02683517243565923    3    1    6    5
 -0.01296212028323789    3    1    8    1
 -0.0014293557626378    3    1    9    3
 0.00168347511832856    3    1    9    8
 0.007960444765953914    3    1   10    3
 0.009818861617415103    3    1   10    8
 -0.008040205891025857    3    1   11    2
 0.01648492095490028    3    1   11    7
 -0.008040205072473661    3    1   12    3
 0.01648492206383952    3    1   12    8
 -0.01164698864660546    3    1   13    5
 -0.01164698796305215    3    1   14    4
 0.01102131359801522    3    1   15    5
 0.00345266111997824    3    1   16    5
 -0.007893446327622549    3    1   17    6
 0.01760699307764359    3    1   17   13
 0.0115082983346054    3    1   17   15
 -0.0009472208138482336    3    1   17   16
 0.01760699388312745    3    1   18   14
 0.00226575157866439    3    1   19    3
 0.002213533449815861    3    1   19    8
 0.001728410035160197    3    1   20    5
 -0.0003171309426133057    3    1   20   17
 0.003994352679422762    3    1   21    6
 -0.004222713660128458    3    1   21   13
 -0.000852232466844577    3    1   21   15
 0.008061996238761264    3    1   21   16
 0.003427402664837301    3    1   21   20
 -0.004222713880349427    3    1   22   14
 0.0005993923404254177    3    1   23    3
 -0.001486936593755679    3    1   23    8
 0.006152266992215584    3    1   24    2
 -0.008495296928680616    3    1   24    7
 0.006152267028630041    3    1   25    3
 -0.008495297017123274    3    1   25    8
 -0.005072033976196206    3    1   26   11
 0.006584879157209236    3    1   26   24
 0.004757585519616494    3    1   27    1
 -0.006058138663000405    3    1   27    9
 -0.00395373887106729    3    1   27   10
 -0.005072034581679999    3    1   27   12
 0.003013161651056626    3    1   27   19
 0.006317535508070295    3    1   27   23
 0.006584879523452283    3    1   27   25
 0.003208797471254074    3    1   28    4
 -0.005023495578467309    3    1   28   18
 0.006156411305606782    3    1   28   22
 -0.00203572715961511    3    1   29    5
 -0.003038378218496416    3    1   29   17
 0.0007334569215364949    3    1   29   21
 0.003208797476335097    3    1   30    5
 -0.005023495572819049    3    1   30   17
 0.006156411304607266    3    1   30   21
 0.02758439430329827    3    2    3    2
 0.02818684352097272    3    2    5    4
 -1.434367028295009e-05    3    2    7    3
 -1.434367028199292e-05    3    2    8    2
 0.01667592765534038    3    2    8    7
 -0.004641756640883101    3    2   11    1
 -0.003624085441981197    3    2   11    9
 -0.0182018314058255    3    2   11   10
 -2.073444628523994e-09    3    2   12   11
 0.0039742654174608    3    2   14    6
 1.337416889311342e-09    3    2   14   13
 -0.01964417674767304    3    2   15   14
 -0.0002331690438964986    3    2   16   14
 0.002684313529512713    3    2   17    4
 0.002684313529510454    3    2   18    5
 0.01952891357039764    3    2   18   17
 -0.001382481833720551    3    2   19   11
 -0.0003220147169767096    3    2   20   14
 0.002919372697555231    3    2   21    4
 -0.003281690538851011    3    2   21   18
 0.002919372697552191    3    2   22    5
 -0.003281690538849458    3    2   22   17
 0.005203039444356155    3    2   22   21
 0.005182698793821632    3    2   23   11
 0.004081103894322357    3    2   24    1
 -0.005954936748583159    3    2   24    9
 0.01154248756062954    3    2   24   10
 1.070161479927571e-09    3    2   24   12
 0.00707789792793943    3    2   24   19
 -0.004495689724228237    3    2   24   23
 2.990656562216138e-10    3    2   25   11
 -2.584380736595885e-10    3    2   25   24
 -0.002062744102966731    3    2   26    3
 -0.00500734003861974    3    2   26    8
 -0.002062744102969814    3    2   27    2
 -0.00500734003861889    3    2   27    7
 0.009650631419394973    3    2   27   26
 -0.002312551221545416    3    2   28    6
 -2.227003071039451e-10    3    2   28   13
 0.004937036076110652    3    2   28   15
 0.005713312309312901    3    2   28   16
 0.002330387934686139    3    2   28   20
 0.004332322390455898    3    2   29   14
 -0.007715512326820568    3    2   29   28
 -9.311408813438485e-12    3    2   30   14
 1.677561914007625e-11    3    2   30   28
 0.6121320635063597    3    3    1    1
 0.6113496413661025    3    3    2    2
 0.6665184299728268    3    3    3    3
 0.6131599092922788    3    3    4    4
 0.6695335963343575    3    3    5    5
 0.6303017050498828    3    3    6    6
 0.01706245924857193    3    3    7    2
 0.5468911775565682    3    3    7    7
 0.01703377190797633    3    3    8    3
 0.5802430328672369    3    3    8    8
 -0.01151270911646242    3    3    9    1
 0.2919972126840045    3    3    9    9
 0.0434210383537334    3    3   10    1
 0.04448850415159513    3    3   10    9
 0.5707271553895438    3    3   10   10
 0.5469373095786352    3    3   11   11
 -0.004641752291535157    3    3   12    1
 -0.003624088196326754    3    3   12    9
 -0.01820182751518133    3    3   12   10
 0.5469373053825287    3    3   12   12
 0.003974262473787474    3    3   13    6
 0.6023329110481689    3    3   13   13
 0.6023329083829138    3    3   14   14
 0.05148346953646393    3    3   15    6
 -0.01964417760362959    3    3   15   13
 0.6150047583907889    3    3   15   15
 0.02860663899665487    3    3   16    6
 -0.0002331757012768994    3    3   16   13
 0.0004760724103248565    3    3   16   15
 0.2720386980122489    3    3   16   16
 0.04443295211206769    3    3   17    5
 0.6344299839906675    3    3   17   17
 0.03906432505307064    3    3   18    4
 0.5953721568499104    3    3   18   18
 0.007476210640932631    3    3   19    1
 -0.07966071387642953    3    3   19    9
 0.07138761939652616    3    3   19   10
 -0.001382476460541654    3    3   19   12
 0.2241253803515197    3    3   19   19
 0.01398376531347676    3    3   20    6
 -0.0003220141507069324    3    3   20   13
 0.004857049300477475    3    3   20   15
 0.04421255508572592    3    3   20   16
 0.1480720848122779    3    3   20   20
 0.04440837661900481    3    3   21    5
 -0.07220191050572154    3    3   21   17
 0.328880545494404    3    3   21   21
 0.0385696312238757    3    3   22    4
 -0.06563852942800875    3    3   22   18
 0.3184744666056887    3    3   22   22
 0.01190883963389713    3    3   23    1
 -0.03039312656535799    3    3   23    9
 -0.08919750535947107    3    3   23   10
 0.005182696215712855    3    3   23   12
 0.002883040338978109    3    3   23   19
 0.3478049305562872    3    3   23   23
 -0.1378043757579557    3    3   24   11
 0.4243377661451884    3    3   24   24
 0.004081104584125435    3    3   25    1
 -0.005954934430788652    3    3   25    9
 0.01154249730910651    3    3   25   10
 -0.1378043744106212    3    3   25   12
 0.007077898061163417    3    3   25   19
 -0.004495694144387049    3    3   25   23
 0.4243377656775286    3    3   25   25
 -0.03349920821758789    3    3   26    2
 -0.102274277441678    3    3   26    7
 0.4120251482760022    3    3   26   26
 -0.03762469642350771    3    3   27    3
 -0.1122889575189038    3    3   27    8
 0.4313264111147748    3    3   27   27
 -0.1023956904757473    3    3   28   14
 0.3498961838869142    3    3   28   28
 0.01775006570462804    3    3   29    6
 0.004332326965363007    3    3   29   13
 -0.07979093844732353    3    3   29   15
 -0.03274388645131956    3    3   29   16
 -0.01646637097052102    3    3   29   20
 0.3474433955239478    3    3   29   29
 -0.002312551258218642    3    3   30    6
 -0.1023956907195644    3    3   30   13
 0.00493702925271387    3    3   30   15
 0.005713314438141471    3    3   30   16
 0.002330387947948276    3    3   30   20
 -0.007715512323555008    3    3   30   29
 0.349896183930043    3    3   30   30
 0.03066626730992422    4    1    4    1
 0.02377292923514307    4    1    6    2
 -0.01763649954038753    4    1    7    6
 -0.001170342354140631    4    1    9    4
 0.008864233672428536    4    1   10    4
 -0.01545850577459805    4    1   11    5
 0.015458506695614    4    1   12    4
 0.01632019994415908    4    1   13    2
 -0.01706394322849925    4    1   13    7
 -0.01632020078315215    4    1   14    3
 0.01706394274866934    4    1   14    8
 0.01322402743846793    4    1   15    2
 0.006654237281039951    4    1   15    7
 0.003223263625278632    4    1   16    2
 -0.001267347826221185    4    1   16    7
 0.01471252721816613    4    1   17   11
 -0.02190060708492838    4    1   18    1
 0.003643660689430936    4    1   18    9
 0.009624727785735237    4    1   18   10
 -0.01471252606894756    4    1   18   12
 0.001902073713083339    4    1   19    4
 0.0004873797958300961    4    1   19   18
 0.001646541042691903    4    1   20    2
 -0.0005544567519389784    4    1   20    7
 -0.002747079339604924    4    1   21   11
 0.007665081622895319    4    1   22    1
 -0.00788891740501077    4    1   22    9
 0.000827744787061223    4    1   22   10
 0.002747079193834492    4    1   22   12
 0.004555112014109386    4    1   22   19
 -0.0006708807987388151    4    1   23    4
 -0.005056534305067686    4    1   23   18
 0.005125764879653433    4    1   23   22
 0.009760579557902195    4    1   24    5
 -0.009042642960306508    4    1   24   17
 0.00718207564179068    4    1   24   21
 -0.009760579599107973    4    1   25    4
 0.009042642671004615    4    1   25   18
 -0.007182075345508993    4    1   25   22
 0.005269846970189166    4    1   26    6
 0.006846987184256259    4    1   26   13
 -0.005286048374090429    4    1   26   15
 0.004818170796775166    4    1   26   16
 0.00191434637423624    4    1   26   20
 -0.006846986726659361    4    1   27   14
 0.004392046546733305    4    1   28    3
 -0.00449365982542449    4    1   28    8
 0.004093650610645884    4    1   28   27
 -0.002211466080583951    4    1   29    2
 -0.001316035439307319    4    1   29    7
 0.003774553073279732    4    1   29   26
 -0.004392046542596628    4    1   30    2
 0.004493659828980063    4    1   30    7
 -0.004093650618840328    4    1   30   26
 0.3277503961968546    4    2    4    2
 0.2731445695507472    4    2    5    3
 0.2601381041488026    4    2    6    1
 -0.0575372071864262    4    2    7    4
 -0.05157804482316793    4    2    8    5
 -0.00300396117939994    4    2    9    6
 -0.0654108342982236    4    2   10    6
 -0.002801836782440886    4    2   12    6
 0.007376225681511405    4    2   13    1
 0.001012983450665895    4    2   13    9
 0.02090128892891905    4    2   13   10
 0.2482077956082537    4    2   13   12
 0.248207794538167    4    2   14   11
 0.02351994230655569    4    2   15    1
 0.04046346828612615    4    2   15    9
 0.2373147461713882    4    2   15   10
 0.01734001754567373    4    2   15   12
 0.02458488640692828    4    2   16    1
 -0.05862393950772976    4    2   16    9
 0.01559765165012689    4    2   16   10
 -0.0002203595731361766    4    2   16   12
 0.00756236034618663    4    2   17    3
 0.2225093233548019    4    2   17    8
 0.01304285187522209    4    2   18    2
 0.2546870126188714    4    2   18    7
 -0.02520484092341421    4    2   19    6
 0.004116658410684503    4    2   19   13
 0.02610388127739368    4    2   19   15
 0.02674266816682942    4    2   19   16
 0.01223735513138266    4    2   20    1
 -0.01503807466257201    4    2   20    9
 0.005884033648573471    4    2   20   10
 0.0001041343615955911    4    2   20   12
 0.02535935362227353    4    2   20   19
 0.03135555216680141    4    2   21    3
 -0.03654527182211786    4    2   21    8
 0.03720614790529704    4    2   22    2
 -0.04346225351126228    4    2   22    7
 0.01301370164489487    4    2   23    6
 -0.005635275096480092    4    2   23   13
 -0.08454772380119167    4    2   23   15
 0.03284498307177851    4    2   23   16
 0.0135112099464815    4    2   23   20
 -0.1450322933379697    4    2   24   14
 0.001868049796617421    4    2   25    6
 -0.1450322931081787    4    2   25   13
 -0.01001235876829474    4    2   25   15
 -0.004504378331502369    4    2   25   16
 -0.001983861564270514    4    2   25   20
 -0.01851868407566281    4    2   26    4
 -0.137786647608251    4    2   26   18
 0.06701022575842215    4    2   26   22
 -0.01471835030432044    4    2   27    5
 -0.1202276156214121    4    2   27   17
 0.06209443634730435    4    2   27   21
 -0.05400161844315004    4    2   28   11
 0.1104002231833251    4    2   28   24
 0.005982196903242375    4    2   29    1
 0.01206612582436476    4    2   29    9
 -0.05524019142925275    4    2   29   10
 -0.003253186533883901    4    2   29   12
 -0.0335814207462409    4    2   29   19
 0.08169610357120276    4    2   29   23
 0.007767415098148978    4    2   29   25
 -0.001867222895871947    4    2   30    1
 0.004531417386676609    4    2   30    9
 -0.006991251808254707    4    2   30   10
 -0.05400161904884985    4    2   30   12
 -0.004972094440571702    4    2   30   19
 0.002528419259561529    4    2   30   23
 0.1104002233280848    4    2   30   25
 0.02730291332312184    4    3    4    3
 0.02730291332312234    4    3    5    2
 -0.00297958118161866    4    3    7    5
 -0.002979581181619219    4    3    8    4
 0.002801829628623918    4    3   11    6
 1.18909018974226e-09    4    3   13   11
 -0.007376226795349351    4    3   14    1
 -0.001012994749746288    4    3   14    9
 -0.02090133163891141    4    3   14   10
 -2.287605910994149e-09    4    3   14   12
 -0.01733997375759205    4    3   15   11
 0.0002203545403412536    4    3   16   11
 0.00274024576452158    4    3   17    2
 0.01608884463202402    4    3   17    7
 0.002740245764519159    4    3   18    3
 0.01608884463202462    4    3   18    8
 -0.004116659633645919    4    3   19   14
 -0.0001041341663711903    4    3   20   11
 0.002925297869255932    4    3   21    2
 -0.00345849084457722    4    3   21    7
 0.002925297869252807    4    3   22    3
 -0.003458490844576162    4    3   22    8
 0.00563528990723717    4    3   23   14
 -0.001868049048803054    4    3   24    6
 -5.936952821948534e-10    4    3   24   13
 0.01001234397836207    4    3   24   15
 0.004504383141887031    4    3   24   16
 0.001983862336717193    4    3   24   20
 3.247447928563016e-10    4    3   25   14
 -0.001900166885679862    4    3   26    5
 -0.008779515993406591    4    3   26   17
 0.002457894705560776    4    3   26   21
 -0.001900166885682294    4    3   27    4
 -0.008779515993406307    4    3   27   18
 0.002457894705560121    4    3   27   22
 0.001867222884046102    4    3   28    1
 -0.004531415813144408    4    3   28    9
 0.006991257758955816    4    3   28   10
 6.207837866106387e-10    4    3   28   12
 0.004972094496570108    4    3   28   19
 -0.002528425808300569    4    3   28   23
 -1.451824907659279e-10    4    3   28   25
 0.003253180810818893    4    3   29   11
 -0.007767410148878148    4    3   29   24
 -6.976906276510526e-12    4    3   30   11
 1.684878644756808e-11    4    3   30   24
 0.6156759296765248    4    4    1    1
 0.6695335963340844    4    4    2    2
 0.6131599092922789    4    4    3    3
 0.6753120792714308    4    4    4    4
 0.6169911521404567    4    4    5    5
 0.6325833528922404    4    4    6    6
 0.00438792104907957    4    4    7    2
 0.5807471046552375    4    4    7    7
 0.0077260011712036    4    4    8    3
 0.547384668581563    4    4    8    8
 -0.01347586192167402    4    4    9    1
 0.2909642644927149    4    4    9    9
 0.03376847393083342    4    4   10    1
 0.04429416488364342    4    4   10    9
 0.5721187248998267    4    4   10   10
 0.5482813323997134    4    4   11   11
 0.006291622850661068    4    4   12    1
 0.003164169750791897    4    4   12    9
 0.01893042475430783    4    4   12   10
 0.5482813366261333    4    4   12   12
 -0.002615717013228329    4    4   13    6
 0.6063510907550077    4    4   13   13
 0.6063510935515352    4    4   14   14
 0.04195480581391343    4    4   15    6
 0.02055597012096719    4    4   15   13
 0.6163455577579057    4    4   15   15
 0.02923451662562474    4    4   16    6
 0.0005487193050544891    4    4   16   13
 0.0005268487887981069    4    4   16   15
 0.273705246122864    4    4   16   16
 0.0305184192779177    4    4   17    5
 0.5976133797845758    4    4   17   17
 0.0330075948580671    4    4   18    4
 0.6373654495303445    4    4   18   18
 0.006024931999315543    4    4   19    1
 -0.07864774131048    4    4   19    9
 0.07201643972016668    4    4   19   10
 0.001936784063542207    4    4   19   12
 0.2232219792669923    4    4   19   19
 0.0142032682632879    4    4   20    6
 0.0004710962470547969    4    4   20   13
 0.004885896420031631    4    4   20   15
 0.04486552397241737    4    4   20   16
 0.1486436927859665    4    4   20   20
 0.04132622967416912    4    4   21    5
 -0.06650418924223041    4    4   21   17
 0.3215012349867572    4    4   21   21
 0.04822301604384822    4    4   22    4
 -0.07342446971821946    4    4   22   18
 0.3325803931685315    4    4   22   22
 0.01436377898080633    4    4   23    1
 -0.0315497303384064    4    4   23    9
 -0.09026837334699397    4    4   23   10
 -0.005121003987497958    4    4   23   12
 0.002619020184635117    4    4   23   19
 0.3494840532388098    4    4   23   23
 -0.1416464742590991    4    4   24   11
 0.4246771942612132    4    4   24   24
 -0.004939088628949778    4    4   25    1
 0.005679376717608211    4    4   25    9
 -0.01210237037255011    4    4   25   10
 -0.1416464757153871    4    4   25   12
 -0.006976167466166507    4    4   25   19
 0.004448123618507466    4    4   25   23
 0.4246771948232188    4    4   25   25
 -0.03428894856438881    4    4   26    2
 -0.1158506023772221    4    4   26    7
 0.4285814819810473    4    4   26   26
 -0.03088636920426058    4    4   27    3
 -0.1047222416358191    4    4   27    8
 0.4101967725529379    4    4   27   27
 -0.1043873004612207    4    4   28   14
 0.3505860028215537    4    4   28   28
 0.0205176332650219    4    4   29    6
 -0.004863842957415515    4    4   29   13
 -0.08127003989796895    4    4   29   15
 -0.03094375513968773    4    4   29   16
 -0.01578618834096085    4    4   29   20
 0.3487471524171164    4    4   29   29
 0.001902125287407274    4    4   30    6
 -0.1043873002108147    4    4   30   13
 -0.005402578012767327    4    4   30   15
 -0.00584316004250524    4    4   30   16
 -0.002411856032369221    4    4   30   20
 0.007694778947586836    4    4   30   29
 0.3505860027978377    4    4   30   30
 0.03066626730989264    5    1    5    1
 0.02377292923511766    5    1    6    3
 -0.01763649954037651    5    1    8    6
 -0.001170341437505    5    1    9    5
 0.008864237011783195    5    1   10    5
 -0.01545850577461151    5    1   11    4
 -0.01545850485010935    5    1   12    5
 -0.01632020162175116    5    1   13    3
 0.01706394226840806    5    1   13    8
 -0.01632020078316902    5    1   14    2
 0.01706394274865841    5    1   14    7
 0.01322402520844018    5    1   15    3
 0.006654239612658324    5    1   15    8
 0.003223264279982267    5    1   16    3
 -0.001267348510763397    5    1   16    8
 -0.02190060708491252    5    1   17    1
 0.003643659817023576    5    1   17    9
 0.009624724607502353    5    1   17   10
 0.0147125283641451    5    1   17   12
 0.01471252721815633    5    1   18   11
 0.001902073709811306    5    1   19    5
 0.000487379798860223    5    1   19   17
 0.00164654104173082    5    1   20    3
 -0.0005544567509570327    5    1   20    8
 0.007665081622890525    5    1   21    1
 -0.007888917242114598    5    1   21    9
 0.0008277453804893221    5    1   21   10
 -0.002747079482805955    5    1   21   12
 0.004555112011702413    5    1   21   19
 -0.002747079339600657    5    1   22   11
 -0.0006708819260642086    5    1   23    5
 -0.005056533260647924    5    1   23   17
 0.005125764050131144    5    1   23   21
 0.009760579557915908    5    1   24    4
 -0.00904264296029977    5    1   24   18
 0.007182075641785531    5    1   24   22
 0.009760579522231111    5    1   25    5
 -0.009042643254856224    5    1   25   17
 0.007182075939048309    5    1   25   21
 -0.006846986726654431    5    1   26   14
 0.005269846970184939    5    1   27    6
 -0.006846986268674592    5    1   27   13
 -0.005286049309659557    5    1   27   15
 0.004818171071448781    5    1   27   16
 0.001914346373341587    5    1   27   20
 0.004392046546744054    5    1   28    2
 -0.004493659825420347    5    1   28    7
 0.004093650610643231    5    1   28   26