 &FCI NORB=  24,NELEC=10,MS2=0,
  ORBSYM=1,1,1,1,1,1,1,1,1,1,1,1,1,1,1,1,1,1,1,1,1,1,1,1,
  ISYM=1,
 &END
 4.742727519905246    1    1    1    1
 -0.4736931850628905    1    1    2    1
 1.130944751619002    1    1    2    2
 1.091148767717265    1    1    3    3
 0.655343866343736    1    1    4    4
 -0.03202007575993242    1    1    5    1
 0.05456999034005789    1    1    5    2
 0.6579237998296193    1    1    5    5
 0.03736868141999552    1    1    6    1
 -0.05458563348688516    1    1    6    2
 0.3978194628916583    1    1    6    5
 0.5841957122123227    1    1    6    6
 0.4017886553100011    1    1    7    4
 0.5776073521239748    1    1    7    7
 -0.06083483995182367    1    1    8    1
 0.07510873222034187    1    1    8    2
 -0.02522868382088166    1    1    8    5
 -0.02934622914762593    1    1    8    6
 0.2240590990764546    1    1    8    8
 0.05353577058358017    1    1    9    4
 0.0395640403413926    1    1    9    7
 0.211752117323157    1    1    9    9
 -0.3080699342242689    1    1   10    4
 -0.3384215850379338    1    1   10    7
 -0.07788838026078018    1    1   10    9
 0.8115767309648355    1    1   10   10
 -0.5033654620413538    1    1   11    3
 0.9320113833489352    1    1   11   11
 -0.02567179207267505    1    1   12    1
 0.02186408738996666    1    1   12    2
 -0.3254454479632463    1    1   12    5
 -0.3457698685784137    1    1   12    6
 0.05087423400301292    1    1   12    8
 0.8756136073250899    1    1   12   12
 -0.3055283757818497    1    1   13    1
 0.331488467016644    1    1   13    2
 0.1450883513594892    1    1   13    5
 0.04591057713881973    1    1   13    6
 0.05862433728100899    1    1   13    8
 -0.1860649606729905    1    1   13   12
 0.6509524646397323    1    1   13   13
 0.0005137735196310205    1    1   14    4
 -0.004200723901930107    1    1   14    7
 0.0002155807543030015    1    1   14    9
 0.003180292503051782    1    1   14   10
 0.2136246456647641    1    1   14   14
 0.2134791450694036    1    1   15   15
 -0.05866818433992417    1    1   16    1
 0.06358199493669851    1    1   16    2
 0.04657527170738961    1    1   16    5
 0.03216848549646823    1    1   16    6
 0.008717061420717133    1    1   16    8
 -0.0808988879829266    1    1   16   12
 0.09852285351017509    1    1   16   13
 0.2383700547516553    1    1   16   16
 0.0644262475683571    1    1   17    3
 -0.09831475015530539    1    1   17   11
 0.2269613501537547    1    1   17   17
 -0.1756001208082287    1    1   18    4
 -0.1486836916236763    1    1   18    7
 -0.05113441006223286    1    1   18    9
 0.3423644948474695    1    1   18   10
 0.0003649373173140666    1    1   18   14
 0.4270931705225823    1    1   18   18
 0.2762964339751725    1    1   19    1
 -0.2866986944934384    1    1   19    2
 0.07115399224148471    1    1   19    5
 0.109476380739794    1    1   19    6
 -0.08853925693826709    1    1   19    8
 -0.2223735602275853    1    1   19   12
 -0.2598224076310055    1    1   19   13
 -0.03745350281332073    1    1   19   16
 0.5834144835589068    1    1   19   19
 -0.001537388578895946    1    1   20    1
 0.001299546033316218    1    1   20    2
 0.002276665015777564    1    1   20    5
 -0.00318546959205397    1    1   20    6
 0.005805623622260438    1    1   20    8
 0.0003725984789580037    1    1   20   12
 0.002655154090993358    1    1   20   13
 -0.002401588924692245    1    1   20   16
 0.003884688832274204    1    1   20   19
 0.926019785830976    1    1   20   20
 -0.004283691463413412    1    1   21    4
 0.01365370178604168    1    1   21    7
 0.01859468776345364    1    1   21    9
 -0.008296846754932025    1    1   21   10
 -0.002297644025329711    1    1   21   14
 0.01218150299708237    1    1   21   18
 0.9252703628762892    1    1   21   21
 0.0008181347879625155    1    1   22    3
 -0.001436608392667856    1    1   22   11
 -0.001481981254438291    1    1   22   17
 0.9261199796997951    1    1   22   22
 -0.002099392256385988    1    1   23   15
 0.9261146069845253    1    1   23   23
 -0.003167287877784335    1    1   24    1
 0.00167157402808779    1    1   24    2
 0.003569659711346369    1    1   24    5
 -0.007796830314132832    1    1   24    6
 0.01069145908435786    1    1   24    8
 0.004223242446086606    1    1   24   12
 0.003159633652951335    1    1   24   13
 -0.0003472524825602051    1    1   24   16
 0.007353488051544309    1    1   24   19
 -0.0001716485732470694    1    1   24   20
 0.9258084572178948    1    1   24   24
 -0.4736931850628904    2    1    1    1
 0.07664835828257663    2    1    2    1
 -0.02067944573445064    2    1    2    2
 -0.01375722618359876    2    1    3    3
 -0.006123449387325675    2    1    4    4
 0.005493992010278884    2    1    5    1
 -0.001284842513087508    2    1    5    2
 -0.006273978640265225    2    1    5    5
 -0.005846209172535487    2    1    6    1
 0.001778941150025281    2    1    6    2
 -0.005714016595793466    2    1    6    5
 -0.005660388416275497    2    1    6    6
 -0.005821639224993059    2    1    7    4
 -0.005564183239443706    2    1    7    7
 0.009908953245436999    2    1    8    1
 -0.002715345069156453    2    1    8    2
 0.0004138127929501707    2    1    8    5
 0.0007832336175883743    2    1    8    6
 -0.0004281837884436934    2    1    8    8
 -0.001046100052712212    2    1    9    4
 -0.0009957332671896859    2    1    9    7
 -0.0001930536298044592    2    1    9    9
 0.009513625959788719    2    1   10    4
 0.00908089659621346    2    1   10    7
 0.001640660975344814    2    1   10    9
 -0.01502319219794642    2    1   10   10
 0.01543328878288714    2    1   11    3
 -0.01749316768592719    2    1   11   11
 0.003719626197442497    2    1   12    1
 -0.001170943811751645    2    1   12    2
 0.009951468905233987    2    1   12    5
 0.009575380189280612    2    1   12    6
 -0.001130951599013244    2    1   12    8
 -0.01659663517842061    2    1   12   12
 0.04980029307962618    2    1   13    1
 -0.01357062212602354    2    1   13    2
 -0.004073496896707444    2    1   13    5
 -0.001872949456881206    2    1   13    6
 -0.00148265440085405    2    1   13    8
 0.004384490454547607    2    1   13   12
 -0.01068516600529602    2    1   13   13
 3.805350741547576e-05    2    1   14    4
 4.162076116983532e-05    2    1   14    7
 6.572468856343425e-06    2    1   14    9
 -6.506986354603958e-05    2    1   14   10
 -1.573381401947045e-05    2    1   14   14
 -1.505547161946561e-05    2    1   15   15
 0.009593866829751137    2    1   16    1
 -0.002605370091184564    2    1   16    2
 -0.00146448503252766    2    1   16    5
 -0.0010006062091509    2    1   16    6
 -0.0002178498871770382    2    1   16    8
 0.00196164102595082    2    1   16   12
 -0.002399067885886888    2    1   16   13
 -0.000618845910200614    2    1   16   16
 -0.002104494184895005    2    1   17    3
 0.002384131497316494    2    1   17   11
 -0.0003402629010943948    2    1   17   17
 0.005539894455242295    2    1   18    4
 0.005280881422396626    2    1   18    7
 0.0009559074583728405    2    1   18    9
 -0.008742003260146913    2    1   18   10
 -3.614761684446967e-05    2    1   18   14
 -0.005111957131771183    2    1   18   18
 -0.04476426683998535    2    1   19    1
 0.01228684996384784    2    1   19    2
 -0.002313432809547555    2    1   19    5
 -0.003967911174153584    2    1   19    6
 0.001929887287539497    2    1   19    8
 0.00592181543211008    2    1   19   12
 0.006581259852695942    2    1   19   13
 0.0009089266194022207    2    1   19   16
 -0.009117479435588854    2    1   19   19
 0.0002516988189240676    2    1   20    1
 -7.007844909844295e-05    2    1   20    2
 0.0001758793543634596    2    1   20    5
 0.0001809868861591204    2    1   20    6
 -3.061371807329947e-05    2    1   20    8
 -0.0001554167679957099    2    1   20   12
 -7.806316258330748e-06    2    1   20   13
 1.563901080252972e-05    2    1   20   16
 6.930869775886956e-05    2    1   20   19
 -0.001975885368485819    2    1   20   20
 1.422183754922411e-05    2    1   21    4
 -1.796194662228261e-05    2    1   21    7
 -2.874045322975397e-05    2    1   21    9
 0.0001455251170612644    2    1   21   10
 6.326574381684608e-06    2    1   21   14
 5.117093523515126e-05    2    1   21   18
 -0.001977204924902951    2    1   21   21
 0.0002049588349922358    2    1   22    3
 -8.412084919648647e-05    2    1   22   11
 1.444349660424578e-05    2    1   22   17
 -0.001938074300698679    2    1   22   22
 5.472756276654e-06    2    1   23   15
 -0.001938343577700423    2    1   23   23
 0.0004582969206365493    2    1   24    1
 -7.313983163846995e-05    2    1   24    2
 -2.560035468888896e-05    2    1   24    5
 4.821430114043414e-06    2    1   24    6
 -2.346535938246992e-05    2    1   24    8
 -6.558941907912212e-05    2    1   24   12
 -5.323959274873877e-05    2    1   24   13
 -3.961263558144424e-06    2    1   24   16
 5.706238194266446e-05    2    1   24   19
 -4.273792512699243e-06    2    1   24   20
 -0.001927060651510028    2    1   24   24
 1.130944751619002    2    2    1    1
 -0.02067944573445063    2    2    2    1
 0.7948754786792455    2    2    2    2
 0.7707562863414615    2    2    3    3
 0.5082944826163683    2    2    4    4
 -0.000821949361522867    2    2    5    1
 0.03162808501949136    2    2    5    2
 0.5079885729548341    2    2    5    5
 0.00199113674119649    2    2    6    1
 -0.02920169832800133    2    2    6    2
 0.2601924860125202    2    2    6    5
 0.451377061388283    2    2    6    6
 0.2624636157074759    2    2    7    4
 0.4456704718893646    2    2    7    7
 -0.002541913730840413    2    2    8    1
 0.03438373690220851    2    2    8    2
 -0.01484402714696236    2    2    8    5
 -0.01346229232135836    2    2    8    6
 0.2175521195788605    2    2    8    8
 0.03027010308102708    2    2    9    4
 0.01722173124219858    2    2    9    7
 0.2079410598910935    2    2    9    9
 -0.1195210819220686    2    2   10    4
 -0.1586950342223833    2    2   10    7
 -0.04604254395390154    2    2   10    9
 0.5396802070596598    2    2   10   10
 -0.2042460965958025    2    2   11    3
 0.6187048775028542    2    2   11   11
 -0.001800528263347648    2    2   12    1
 0.007453961679667262    2    2   12    2
 -0.1280929162766862    2    2   12    5
 -0.1573454929134278    2    2   12    6
 0.02986786479623007    2    2   12    8
 0.5759319677367805    2    2   12   12
 -0.01213208263596175    2    2   13    1
 0.1295876226284436    2    2   13    2
 0.0685549928841567    2    2   13    5
 0.003288797530536539    2    2   13    6
 0.03750348049205218    2    2   13    8
 -0.1031016066159588    2    2   13   12
 0.4813786607307295    2    2   13   13
 0.001347126059501914    2    2   14    4
 -0.003344900837454022    2    2   14    7
 0.0003653218489545751    2    2   14    9
 0.001960235492596867    2    2   14   10
 0.2137730018208558    2    2   14   14
 0.2136355166640116    2    2   15   15
 -0.002275603641223747    2    2   16    1
 0.0246822216106513    2    2   16    2
 0.01864018367099226    2    2   16    5
 0.01154332758393727    2    2   16    6
 0.005924622564714939    2    2   16    8
 -0.04485684938086596    2    2   16   12
 0.05951962231672207    2    2   16   13
 0.228452835510156    2    2   16   16
 0.02423944769335755    2    2   17    3
 -0.05580991063709533    2    2   17   11
 0.2213506700591069    2    2   17   17
 -0.06935145755324698    2    2   18    4
 -0.04741100074593681    2    2   18    7
 -0.03309828297125766    2    2   18    9
 0.1861640445227157    2    2   18   10
 -0.000301399979867556    2    2   18   14
 0.3371887006588423    2    2   18   18
 0.01140005336711623    2    2   19    1
 -0.1066480103393942    2    2   19    2
 0.02469340858394362    2    2   19    5
 0.03913827012460843    2    2   19    6
 -0.05848653382788585    2    2   19    8
 -0.120443517890552    2    2   19   12
 -0.1620120635256229    2    2   19   13
 -0.02480518820992277    2    2   19   16
 0.4403405989479992    2    2   19   19
 -6.096893999403496e-05    2    2   20    1
 0.0002667747838169346    2    2   20    2
 0.003491918844990845    2    2   20    5
 -0.001203481625488117    2    2   20    6
 0.004839880220277348    2    2   20    8
 -0.0005544482768722474    2    2   20   12
 0.001856416280407156    2    2   20   13
 -0.001903233867200789    2    2   20   16
 0.0036214792610764    2    2   20   19
 0.7735891214552211    2    2   20   20
 -0.004587986075205616    2    2   21    4
 0.01064931625226945    2    2   21    7
 0.01592902245468683    2    2   21    9
 -0.004126567695783815    2    2   21   10
 -0.001809501688863087    2    2   21   14
 0.01110799335945948    2    2   21   18
 0.7728381760554291    2    2   21   21
 0.002165661105626998    2    2   22    3
 -0.001207673403861731    2    2   22   11
 -0.001179764237623761    2    2   22   17
 0.7738083568009757    2    2   22   22
 -0.001664108448855986    2    2   23   15
 0.7738566025801835    2    2   23   23
 -0.0001939607407473471    2    2   24    1
 0.0004105814213635983    2    2   24    2
 0.003291366576474332    2    2   24    5
 -0.006244884647978794    2    2   24    6
 0.009161364258822824    2    2   24    8
 0.002193430030495728    2    2   24   12
 0.002273015868369535    2    2   24   13
 -0.0002379272357955975    2    2   24   16
 0.006666209098716417    2    2   24   19
 -0.0001490272822574756    2    2   24   20
 0.7735797980742499    2    2   24   24
 0.03407208576589796    3    1    3    1
 0.03618844073061672    3    1    3    2
 0.002186578592453328    3    1    5    3
 -0.002653879107883399    3    1    6    3
 0.003462437878949217    3    1    8    3
 -0.03868736638487178    3    1   11    1
 -0.02097721218537197    3    1   11    2
 -0.001943765340833048    3    1   11    5
 0.002095482957578775    3    1   11    6
 -0.00388188937212081    3    1   11    8
 0.001284165375991168    3    1   12    3
 -0.001475580548306121    3    1   12   11
 0.0143722868468422    3    1   13    3
 -0.01885467817851647    3    1   13   11
 -0.0003306179996888466    3    1   15    4
 0.0002562924086799947    3    1   15    7
 -5.819711787645264e-05    3    1   15    9
 -3.168643277939784e-05    3    1   15   10
 -1.557796281359876e-05    3    1   15   14
 0.002710620803441583    3    1   16    3
 -0.003626129208956896    3    1   16   11
 0.005278012970911926    3    1   17    1
 0.002693005542445546    3    1   17    2
 -6.198870646098985e-05    3    1   17    5
 -1.121078044677951e-05    3    1   17    6
 0.0005949194740454346    3    1   17    8
 0.0001758670854668235    3    1   17   12
 0.002513237697355246    3    1   17   13
 0.0004974310732837157    3    1   17   16
 0.0001437461339153931    3    1   18   15
 -0.01206730174298706    3    1   19    3
 0.01692367287849945    3    1   19   11
 -0.002459481267664298    3    1   19   17
 -0.001728458996301404    3    1   20    3
 0.0008350619462856978    3    1   20   11
 -0.0001001371075167659    3    1   20   17
 -1.066213276637807e-05    3    1   21   15
 0.0001016939061959568    3    1   22    1
 0.0003170660509335121    3    1   22    2
 0.01751071270553647    3    1   22    5
 0.01625465215282639    3    1   22    6
 -0.001346961420807086    3    1   22    8
 -0.01358446020030296    3    1   22   12
 0.003967010738211134    3    1   22   13
 0.001597125269433068    3    1   22   16
 0.003454449998092076    3    1   22   19
 1.810335063042477e-05    3    1   22   20
 0.01747212032632849    3    1   23    4
 0.0163070848259032    3    1   23    7
 0.002297582221221079    3    1   23    9
 -0.01305301381053265    3    1   23   10
 -7.497017257750755e-05    3    1   23   14
 -0.006375082397156563    3    1   23   18
 0.0001957149034917362    3    1   23   21
 0.02867020644359446    3    1   24    3
 -0.01503558519135793    3    1   24   11
 0.00188781185786784    3    1   24   17
 -3.165680200849505e-05    3    1   24   22
 0.03618844073061673    3    2    3    1
 0.1571349615627951    3    2    3    2
 0.007698615525013508    3    2    5    3
 -0.009754577876727918    3    2    6    3
 0.008796940358424496    3    2    8    3
 -0.03743655419151488    3    2   11    1
 -0.04565431447213368    3    2   11    2
 -0.007646091373429722    3    2   11    5
 0.007696790943427127    3    2   11    6
 -0.01701663577637126    3    2   11    8
 0.002447791399089659    3    2   12    3
 -0.005394529827415971    3    2   12   11
 0.02250575504323471    3    2   13    3
 -0.0774753653865644    3    2   13   11
 -0.003329619125666644    3    2   15    4
 0.003112250258386879    3    2   15    7
 -0.0006025703894804757    3    2   15    9
 -0.0006480544856789295    3    2   15   10
 -0.0001727612974375538    3    2   15   14
 0.003982842159414771    3    2   16    3
 -0.01499396946193268    3    2   16   11
 0.005072443893153511    3    2   17    1
 0.005230575253713814    3    2   17    2
 -0.002261174296929614    3    2   17    5
 0.002141231757648372    3    2   17    6
 0.003100499224135436    3    2   17    8
 0.0002274247454108268    3    2   17   12
 0.01023306639888514    3    2   17   13
 0.002150321169176408    3    2   17   16
 0.001422654429982822    3    2   18   15
 -0.01423871270427413    3    2   19    3
 0.07037402189161883    3    2   19   11
 -0.01137269792163213    3    2   19   17
 -0.008460836294655338    3    2   20    3
 0.00189801485944223    3    2   20   11
 -0.0001523567952698955    3    2   20   17
 -0.0001156397497817032    3    2   21   15
 0.0001244897025265105    3    2   22    1
 0.001739899785224067    3    2   22    2
 0.0846859842392317    3    2   22    5
 0.07794368339462299    3    2   22    6
 -0.00567734596275172    3    2   22    8
 -0.03758709125572587    3    2   22   12
 0.009237348094842637    3    2   22   13
 0.003743719462975974    3    2   22   16
 0.006872670731380798    3    2   22   19
 0.0003985993073926474    3    2   22   20
 0.08468835733333584    3    2   23    4
 0.07805566424052476    3    2   23    7
 0.009383334675721777    3    2   23    9
 -0.03651592846305536    3    2   23   10
 -0.000278669797776944    3    2   23   14
 -0.01310398248711169    3    2   23   18
 0.0006488553693193813    3    2   23   21
 0.1352334756718286    3    2   24    3
 -0.03706365019445456    3    2   24   11
 0.003998081436178376    3    2   24   17
 0.0001861943723023351    3    2   24   22
 1.091148767717264    3    3    1    1
 -0.01375722618359877    3    3    2    1
 0.7707562863414615    3    3    2    2
 0.8050659230294062    3    3    3    3
 0.4823120937816947    3    3    4    4
 -0.0008556451978510765    3    3    5    1
 0.02861575201962847    3    3    5    2
 0.4819541073811292    3    3    5    5
 0.0009000939077234234    3    3    6    1
 -0.03074797407756347    3    3    6    2
 0.240253251995549    3    3    6    5
 0.4298576069129492    3    3    6    6
 0.2424273989775495    3    3    7    4
 0.4240309817472308    3    3    7    7
 -0.001547963636830261    3    3    8    1
 0.03384644505692523    3    3    8    2
 -0.01329644104763854    3    3    8    5
 -0.01282077729553012    3    3    8    6
 0.2142272632233639    3    3    8    8
 0.02761874727710618    3    3    9    4
 0.01577279792290998    3    3    9    7
 0.2046956284541649    3    3    9    9
 -0.1105559339011682    3    3   10    4
 -0.1478035787640501    3    3   10    7
 -0.04347625052670689    3    3   10    9
 0.5171750137741011    3    3   10   10
 -0.2142767246088232    3    3   11    3
 0.6458141998665807    3    3   11   11
 -0.0006079691939413279    3    3   12    1
 0.008495767442767761    3    3   12    2
 -0.1184274549511653    3    3   12    5
 -0.1466322488453048    3    3   12    6
 0.02857884477033659    3    3   12    8
 0.5518504066131293    3    3   12   12
 -0.008003567396511606    3    3   13    1
 0.1238185620959413    3    3   13    2
 0.06414103758153193    3    3   13    5
 0.001864399498129751    3    3   13    6
 0.03660894215885267    3    3   13    8
 -0.09574266079622326    3    3   13   12
 0.46947078521799    3    3   13   13
 0.001326804743333327    3    3   14    4
 -0.00318227321517831    3    3   14    7
 0.0003472410009584288    3    3   14    9
 0.001825207861144075    3    3   14   10
 0.2098936698224236    3    3   14   14
 0.2101524350216213    3    3   15   15
 -0.001543076563561709    3    3   16    1
 0.02344102168152725    3    3   16    2
 0.01738822470853634    3    3   16    5
 0.01054677862583718    3    3   16    6
 0.005789558556029791    3    3   16    8
 -0.04204075578880536    3    3   16   12
 0.0575057262566171    3    3   16   13
 0.2239968303277589    3    3   16   16
 0.02527408047097213    3    3   17    3
 -0.06021244320513562    3    3   17   11
 0.2185059342772903    3    3   17   17
 -0.06471940848776579    3    3   18    4
 -0.04398412877718695    3    3   18    7
 -0.03130368286818465    3    3   18    9
 0.1761562471406999    3    3   18   10
 -0.0002722501789153564    3    3   18   14
 0.3265286362366129    3    3   18   18
 0.007289523535393604    3    3   19    1
 -0.1011380831562519    3    3   19    2
 0.02286796581902864    3    3   19    5
 0.03701744707697785    3    3   19    6
 -0.05642650271515005    3    3   19    8
 -0.1157380600583462    3    3   19   12
 -0.1603642233040734    3    3   19   13
 -0.02472916216728941    3    3   19   16
 0.4315892102318711    3    3   19   19
 -0.0004228106801795733    3    3   20    1
 -0.003610600450566033    3    3   20    2
 0.001293802399923831    3    3   20    5
 -0.002262667606641624    3    3   20    6
 0.00416210234611997    3    3   20    8
 0.0002923564092197985    3    3   20   12
 0.0009736674168308569    3    3   20   13
 -0.001850783899087693    3    3   20   16
 0.003227842971260097    3    3   20   19
 0.7061999696814532    3    3   20   20
 -0.005501729088714609    3    3   21    4
 0.008160038688489621    3    3   21    7
 0.0141135267911786    3    3   21    9
 -0.003139258845163879    3    3   21   10
 -0.001593945525312454    3    3   21   14
 0.009954258587001419    3    3   21   18
 0.7051790586723634    3    3   21   21
 -0.0002873402905495569    3    3   22    3
 -0.0004506763252305098    3    3   22   11
 -0.001257587727325672    3    3   22   17
 0.7692346571886249    3    3   22   22
 -0.001656115213973088    3    3   23   15
 0.7692344829555807    3    3   23   23
 0.006017385450307643    3    3   24    1
 0.06244722368643905    3    3   24    2
 0.007286379911987951    3    3   24    5
 -0.009420707447021824    3    3   24    6
 0.01296510932460131    3    3   24    8
 0.0025365491804775    3    3   24   12
 0.01104592032520072    3    3   24   13
 0.001379271021955054    3    3   24   16
 0.0009505998757585439    3    3   24   19
 -0.005409324927399524    3    3   24   20
 0.7894414766108482    3    3   24   24
 0.01502655699182905    4    1    4    1
 0.01703285148483733    4    1    4    2
 -9.631387468755272e-05    4    1    5    4
 -0.0004127228831906807    4    1    6    4
 0.01433714875494279    4    1    7    1
 0.01568644253970142    4    1    7    2
 0.001639944793100153    4    1    7    5
 -0.001638533849454083    4    1    7    6
 0.001252985463819437    4    1    8    4
 0.0009798597630449317    4    1    8    7
 0.00259223624777816    4    1    9    1
 0.002168785802152075    4    1    9    2
 0.0003582501121677228    4    1    9    5
 0.0002047501468554238    4    1    9    6
 0.001596016042270041    4    1    9    8
 -0.02377029589739858    4    1   10    1
 -0.01387746647694606    4    1   10    2
 -0.001357275845811174    4    1   10    5
 0.001529761331800057    4    1   10    6
 -0.002358214788112065    4    1   10    8
 0.000454604763194474    4    1   12    4
 0.0007021957199311633    4    1   12    7
 7.534286660929573e-05    4    1   12    9
 -0.00128065198637564    4    1   12   10
 0.00584209421774925    4    1   13    4
 0.0061796596614229    4    1   13    7
 0.001193085123271463    4    1   13    9
 -0.01202524603903372    4    1   13   10
 -0.0001024477928051757    4    1   14    1
 -7.528237360406336e-05    4    1   14    2
 1.904306549400409e-07    4    1   14    5
 -0.0001309854977477461    4    1   14    6
 -3.377269608103176e-05    4    1   14    8
 -0.0002188383730658361    4    1   14   12
 8.392078099838496e-05    4    1   14   13
 -7.213800208964556e-05    4    1   15    3
 -0.0002132182182586236    4    1   15   11
 0.001323785198409777    4    1   16    4
 0.001087317746958743    4    1   16    7
 0.0002544254019668394    4    1   16    9
 -0.002115425650484147    4    1   16   10
 -0.001496014933237338    4    1   16   14
 -0.001511295388797038    4    1   17   15
 -0.0138515660527209    4    1   18    1
 -0.00711457364209823    4    1   18    2
 -3.041065615637103e-05    4    1   18    5
 0.0008406887203977344    4    1   18    6
 -0.001502478561938624    4    1   18    8
 -1.165178691929588e-05    4    1   18   12
 -0.005812739751188498    4    1   18   13
 -0.001472821198530678    4    1   18   16
 -0.005849544293528707    4    1   19    4
 -0.005425651735234297    4    1   19    7
 -0.001282884920043985    4    1   19    9
 0.009795615501059158    4    1   19   10
 -0.000120631354861145    4    1   19   14
 0.007144407847438223    4    1   19   18
 -0.01122063009837909    4    1   20    4
 -0.01045578557650421    4    1   20    7
 -0.001457846402833628    4    1   20    9
 0.008343220619442314    4    1   20   10
 4.401201252087501e-05    4    1   20   14
 0.00406034283966211    4    1   20   18
 0.0004254908991950698    4    1   21    1
 0.0003346941675683567    4    1   21    2
 0.01173315694959383    4    1   21    5
 0.01083179349909449    4    1   21    6
 -0.0008376399599271402    4    1   21    8
 -0.009099699043034081    4    1   21   12
 0.002781616401727408    4    1   21   13
 0.001100389076205786    4    1   21   16
 0.002167824000143222    4    1   21   19
 -0.0001141640229831304    4    1   21   20
 -2.480445762887569e-06    4    1   22   15
 0.01662979443867809    4    1   23    3
 -0.00865321931560477    4    1   23   11
 0.001078534476963043    4    1   23   17
 1.027234971713076e-05    4    1   23   22
 -0.007458503829531784    4    1   24    4
 -0.006934560428954324    4    1   24    7
 -0.0009495166002734942    4    1   24    9
 0.005536490676421912    4    1   24   10
 3.121208919512762e-05    4    1   24   14
 0.002680826664913141    4    1   24   18
 -0.000119703450732355    4    1   24   21
 0.01703285148483733    4    2    4    1
 0.08431644709415001    4    2    4    2
 -0.01156419235688246    4    2    5    4
 0.008130636259813912    4    2    6    4
 0.01620998115916271    4    2    7    1
 0.07412003329343581    4    2    7    2
 0.01558317569009988    4    2    7    5
 -0.01618015892360216    4    2    7    6
 0.002815637214656752    4    2    8    4
 -0.003163328522078834    4    2    8    7
 0.002849748971964279    4    2    9    1
 0.007570205048900353    4    2    9    2
 0.0007536984481334402    4    2    9    5
 0.004696218137994604    4    2    9    6
 0.02385740025209093    4    2    9    8
 -0.02449811326185701    4    2   10    1
 -0.03481655550762916    4    2   10    2
 -0.008505461508807696    4    2   10    5
 0.008337250007901868    4    2   10    6
 -0.01150316578739892    4    2   10    8
 -0.001867668342125332    4    2   12    4
 0.003253032652639454    4    2   12    7
 0.0004438545016851772    4    2   12    9
 -0.01061598208512582    4    2   12   10
 0.001869358123153141    4    2   13    4
 0.009853255379736045    4    2   13    7
 0.002157374049308071    4    2   13    9
 -0.05992909649129575    4    2   13   10
 -0.0001090638791596071    4    2   14    1
 -0.0002322317325593484    4    2   14    2
 0.000243156733202428    4    2   14    5
 -0.001573879791284385    4    2   14    6
 -0.0003982387393344294    4    2   14    8
 -0.00415153499220918    4    2   14   12
 0.002182676811588019    4    2   14   13
 -0.0006339360652088999    4    2   15    3
 -0.00402244402198332    4    2   15   11
 0.002871562970880963    4    2   16    4
 0.000236521431796227    4    2   16    7
 0.0006634531105565236    4    2   16    9
 -0.007693651714202405    4    2   16   10
 -0.02613865213019699    4    2   16   14
 -0.0265391208370353    4    2   17   15
 -0.01406781512917869    4    2   18    1
 -0.01398400166264459    4    2   18    2
 0.00324097641515225    4    2   18    5
 0.002264105321078009    4    2   18    6
 -0.008833489951836897    4    2   18    8
 0.008746390702143812    4    2   18   12
 -0.0165536463473831    4    2   18   13
 -0.009003836975931549    4    2   18   16
 -0.008298624096607839    4    2   19    4
 -0.005586047200932591    4    2   19    7
 -0.005288102660662717    4    2   19    9
 0.0339211775715385    4    2   19   10
 -0.002820734032690232    4    2   19   14
 0.04493935304869239    4    2   19   18
 -0.05962055515133217    4    2   20    4
 -0.05482618057159176    4    2   20    7
 -0.006450072258009716    4    2   20    9
 0.02443478808934037    4    2   20   10
 0.0001180221636922227    4    2   20   14
 0.008193355077360595    4    2   20   18
 0.0003835141144911869    4    2   21    1
 0.00016549746698747    4    2   21    2
 0.06190084028904597    4    2   21    5
 0.05690682722708602    4    2   21    6
 -0.003916928276058906    4    2   21    8
 -0.02657327768581878    4    2   21   12
 0.006827444391459242    4    2   21   13
 0.002770202799302681    4    2   21   16
 0.003506981315021774    4    2   21   19
 -0.0001654584596742229    4    2   21   20
 -4.933502870419682e-05    4    2   22   15
 0.08586033241911582    4    2   23    3
 -0.02176073813829949    4    2   23   11
 0.002174810497957337    4    2   23   17
 -0.0004951871941561085    4    2   23   22
 -0.03973947110175668    4    2   24    4
 -0.03650103553759002    4    2   24    7
 -0.00420291988523573    4    2   24    9
 0.01630290435063932    4    2   24   10
 0.0001291824104579386    4    2   24   14