 &FCI NORB=  24,NELEC=10,MS2=0,
  ORBSYM=1,1,1,1,1,1,1,1,1,1,1,1,1,1,1,1,1,1,1,1,1,1,1,1,
  ISYM=1,
 &END
 4.739933765351005    1    1    1    1
 -0.4327855781447028    1    1    2    1
 1.04623275991738    1    1    2    2
 0.8644796506218306    1    1    3    3
 -0.1316311278626472    1    1    4    1
 0.08925458468148018    1    1    4    2
 0.9811985389307055    1    1    4    4
 1.038137774039205    1    1    5    5
 -0.1492746136159318    1    1    6    1
 0.2120454456484578    1    1    6    2
 -0.1125417456676918    1    1    6    4
 0.4142352388171686    1    1    6    6
 -0.2456871658532419    1    1    7    3
 0.4012207642894732    1    1    7    7
 -0.1789559392632432    1    1    8    3
 0.1689503723870883    1    1    8    7
 0.5656104824264486    1    1    8    8
 0.1273574458694869    1    1    9    1
 -0.1610979818032819    1    1    9    2
 0.143527544177423    1    1    9    4
 -0.1636768399463513    1    1    9    6
 0.5583388897910785    1    1    9    9
 0.07490027392437376    1    1   10    1
 -0.01428215410345779    1    1   10    2
 -0.4176063383224759    1    1   10    4
 0.1036818159291259    1    1   10    6
 -0.1209882983019854    1    1   10    9
 0.8553162598389132    1    1   10   10
 -0.5117993187729994    1    1   11    5
 0.99862077472653    1    1   11   11
 -0.3246907872845143    1    1   12    3
 0.2155973807072912    1    1   12    7
 0.1267957517530341    1    1   12    8
 0.762318641670217    1    1   12   12
 0.5111843743829755    1    1   13   13
 0.18463952593331    1    1   14    1
 -0.1740894065287483    1    1   14    2
 -0.1145857905918513    1    1   14    4
 -0.07123159498355194    1    1   14    6
 -0.001317013517527906    1    1   14    9
 0.07812865858956415    1    1   14   10
 0.5915333376563573    1    1   14   14
 -0.008826477686400817    1    1   15    5
 0.01633863663267032    1    1   15   11
 0.5028413914988371    1    1   15   15
 -0.02423762166752182    1    1   16    3
 0.01584247295823121    1    1   16    7
 0.01195900670914578    1    1   16    8
 0.0270833274863102    1    1   16   12
 0.4631364698258994    1    1   16   16
 0.3083265031459174    1    1   17    1
 -0.2879446108036824    1    1   17    2
 -0.1189545988962232    1    1   17    4
 -0.1329354920250674    1    1   17    6
 0.03993488204198032    1    1   17    9
 0.08398745799903677    1    1   17   10
 0.1313784090139113    1    1   17   14
 0.7633730517131933    1    1   17   17
 0.1953890102129427    1    1   18    3
 -0.1472596537484433    1    1   18    7
 -0.2487570176250679    1    1   18    8
 -0.2768634577556089    1    1   18   12
 -0.02289689165156587    1    1   18   16
 0.8114334684154498    1    1   18   18
 -0.2049753481099805    1    1   19    1
 0.1805768721041093    1    1   19    2
 -0.1166049213295968    1    1   19    4
 0.1463552072045179    1    1   19    6
 -0.2484691989045359    1    1   19    9
 0.1811742042668901    1    1   19   10
 -0.04795627188078567    1    1   19   14
 -0.08085419570980858    1    1   19   17
 0.7905063025775462    1    1   19   19
 -0.002026562984985759    1    1   20    5
 -0.005665510694233639    1    1   20   11
 -0.1451349155680421    1    1   20   15
 0.8839966934992215    1    1   20   20
 0.1497966688047236    1    1   21   13
 0.8852847877291057    1    1   21   21
 0.002867307608250702    1    1   22    1
 -0.002775058108638743    1    1   22    2
 -0.02272281967696005    1    1   22    4
 0.004564913323891856    1    1   22    6
 -0.03950920027334293    1    1   22    9
 0.002412388853609351    1    1   22   10
 0.141392037498022    1    1   22   14
 -0.08933762357789324    1    1   22   17
 -0.02627400480371389    1    1   22   19
 0.8669891764904071    1    1   22   22
 -0.04706010025654361    1    1   23    1
 0.04779977901632437    1    1   23    2
 -0.08881272232118895    1    1   23    4
 0.0370126952653623    1    1   23    6
 -0.0279764675681966    1    1   23    9
 0.1812721624066793    1    1   23   10
 -0.04823916590735597    1    1   23   14
 -0.08696320387942715    1    1   23   17
 -0.06408483966293722    1    1   23   19
 -0.01072517691768042    1    1   23   22
 0.8860771846552267    1    1   23   23
 -0.119758987152964    1    1   24    3
 0.05146122860062773    1    1   24    7
 -0.001826807057201641    1    1   24    8
 0.2229571636566729    1    1   24   12
 0.02296556070133555    1    1   24   16
 0.03677637224439387    1    1   24   18
 0.9162240344566513    1    1   24   24
 -0.4327855781447032    2    1    1    1
 0.06414736858157767    2    1    2    1
 -0.01464140939587879    2    1    2    2
 -0.006347090961280113    2    1    3    3
 0.01621498744079069    2    1    4    1
 -0.007321096615841041    2    1    4    2
 -0.01228323444604149    2    1    4    4
 -0.01135749071388535    2    1    5    5
 0.02343651461170324    2    1    6    1
 -0.00482403727238228    2    1    6    2
 0.000679277642796539    2    1    6    4
 -0.002111781195583379    2    1    6    6
 0.004121626375405861    2    1    7    3
 -0.00217153436368634    2    1    7    7
 0.00508844005669411    2    1    8    3
 -0.00258598486200379    2    1    8    7
 -0.002399256030799891    2    1    8    8
 -0.02050310138505184    2    1    9    1
 0.003988753093059512    2    1    9    2
 -0.002336912080017001    2    1    9    4
 0.002275279067973215    2    1    9    6
 -0.002069604279153685    2    1    9    9
 -0.007386474508173235    2    1   10    1
 0.003552451637924893    2    1   10    2
 0.01261115046428263    2    1   10    4
 -0.001556278318342514    2    1   10    6
 0.003806265017966232    2    1   10    9
 -0.01375254452134749    2    1   10   10
 0.01429419715296367    2    1   11    5
 -0.01813169064153634    2    1   11   11
 0.007845653031010376    2    1   12    3
 -0.004656855609662716    2    1   12    7
 -0.004920824791719858    2    1   12    8
 -0.01005051390906722    2    1   12   12
 0.0007869156429043153    2    1   13   13
 -0.02662380194027957    2    1   14    1
 0.00690368413627413    2    1   14    2
 0.003855163054507216    2    1   14    4
 0.001846469649724817    2    1   14    6
 -0.0009220535075127584    2    1   14    9
 -0.004849593782607511    2    1   14   10
 -0.003637250388170514    2    1   14   14
 0.001213534448600164    2    1   15    5
 -0.0002887613288030446    2    1   15   11
 0.000412746815164328    2    1   15   15
 0.001055864438683605    2    1   16    3
 -0.0004309200548394834    2    1   16    7
 -0.0001109181946512561    2    1   16    8
 -0.001571519501550955    2    1   16   12
 0.0005365703105421397    2    1   16   16
 -0.04502496636906    2    1   17    1
 0.01108194187709993    2    1   17    2
 0.006659082946603054    2    1   17    4
 0.003114036442948679    2    1   17    6
 -0.002265005145675727    2    1   17    9
 -0.00546280694269327    2    1   17   10
 -0.00579948756605076    2    1   17   14
 -0.008881090778657568    2    1   17   17
 -0.009668978165545196    2    1   18    3
 0.005533061394389569    2    1   18    7
 0.005644285291812291    2    1   18    8
 0.01106074165926021    2    1   18   12
 0.0009625006048066326    2    1   18   16
 -0.01101074672977101    2    1   18   18
 0.033486010063445    2    1   19    1
 -0.007824586262094821    2    1   19    2
 0.004398321196228134    2    1   19    4
 -0.004520929397633931    2    1   19    6
 0.005033049876419585    2    1   19    9
 -0.006327891506562689    2    1   19   10
 0.001412083815003019    2    1   19   14
 0.003962282814816572    2    1   19   17
 -0.008171512518479553    2    1   19   19
 -0.003016189193497158    2    1   20    5
 0.002139365520276939    2    1   20   11
 0.0007547739716259094    2    1   20   15
 -0.002016991018868357    2    1   20   20
 -0.0005280420919788245    2    1   21   13
 -0.00217395386579442    2    1   21   21
 -5.477534575582465e-06    2    1   22    1
 0.0004616828350658629    2    1   22    2
 -0.002130759498609745    2    1   22    4
 0.0007298269806722791    2    1   22    6
 -0.001029293202443074    2    1   22    9
 0.001066420605336054    2    1   22   10
 -0.0005691531271044977    2    1   22   14
 0.0004971077911914481    2    1   22   17
 0.0007224718173103927    2    1   22   19
 -0.001848551084614856    2    1   22   22
 0.009135129925696941    2    1   23    1
 -0.002053825867736548    2    1   23    2
 0.003684267237227766    2    1   23    4
 -0.00184933602687942    2    1   23    6
 0.00184820878610344    2    1   23    9
 -0.004808404707667004    2    1   23   10
 -0.0001956638808673351    2    1   23   14
 0.0005678795900439572    2    1   23   17
 -0.002952003693977799    2    1   23   19
 0.0002725188812016198    2    1   23   22
 -0.004321335659661646    2    1   23   23
 0.002251353650174465    2    1   24    3
 -0.001235498403693586    2    1   24    7
 -0.0009266622508347119    2    1   24    8
 -0.003765635149237988    2    1   24   12
 -0.0008236800598611538    2    1   24   16
 0.003537731464095485    2    1   24   18
 -0.004215208751506117    2    1   24   24
 1.046232759917381    2    2    1    1
 -0.01464140939587881    2    2    2    1
 0.7486622299950008    2    2    2    2
 0.6724246275841346    2    2    3    3
 -0.01335777948083889    2    2    4    1
 -0.0119617706210446    2    2    4    2
 0.680135649627518    2    2    4    4
 0.7134618860468888    2    2    5    5
 -0.002322257575661135    2    2    6    1
 0.1087472944168387    2    2    6    2
 -0.06138227678859469    2    2    6    4
 0.3678105718188784    2    2    6    6
 -0.1269877990121143    2    2    7    3
 0.3458748095250203    2    2    7    7
 -0.04264217125346403    2    2    8    3
 0.104507917366616    2    2    8    7
 0.5081649436596964    2    2    8    8
 0.0004346589660782654    2    2    9    1
 -0.06423535245265809    2    2    9    2
 0.05751236237451384    2    2    9    4
 -0.1086400187848073    2    2    9    6
 0.5078594887572417    2    2    9    9
 0.01186773867846734    2    2   10    1
 0.009998961899516247    2    2   10    2
 -0.1515831658379701    2    2   10    4
 0.05455425128286902    2    2   10    6
 -0.02577570451731215    2    2   10    9
 0.5782152675448184    2    2   10   10
 -0.1887066119310528    2    2   11    5
 0.6185810669432651    2    2   11   11
 -0.1346484061836836    2    2   12    3
 0.1081059717515467    2    2   12    7
 0.02680341373249447    2    2   12    8
 0.5404923517395267    2    2   12   12
 0.5184767903366745    2    2   13   13
 0.007783597227732805    2    2   14    1
 -0.05661226677819661    2    2   14    2
 -0.06067173199744498    2    2   14    4
 -0.03878155194286426    2    2   14    6
 -0.01103017247775401    2    2   14    9
 -0.007096896379396436    2    2   14   10
 0.5168564786510219    2    2   14   14
 0.01839656635236788    2    2   15    5
 0.01881056244641056    2    2   15   11
 0.500945720702587    2    2   15   15
 -0.006997704839140011    2    2   16    3
 0.009217540482745352    2    2   16    7
 0.01452031024793467    2    2   16    8
 -0.007572417389981812    2    2   16   12
 0.4792224478237855    2    2   16   16
 0.0109417116891395    2    2   17    1
 -0.09845908253346759    2    2   17    2
 -0.02294743316502801    2    2   17    4
 -0.07314562748836133    2    2   17    6
 -0.003754070604493947    2    2   17    9
 0.009862287878519175    2    2   17   10
 0.03051434145713863    2    2   17   14
 0.5837088365559905    2    2   17   17
 0.01042065383088478    2    2   18    3
 -0.034440488344569    2    2   18    7
 -0.1230370556244016    2    2   18    8
 -0.07450392388624005    2    2   18   12
 -0.007834438782986702    2    2   18   16
 0.6004133458150609    2    2   18   18
 -0.001068516917522325    2    2   19    1
 0.03453514749644311    2    2   19    2
 -0.01159884150544499    2    2   19    4
 0.05257522891016148    2    2   19    6
 -0.1292290971621222    2    2   19    9
 0.05191001104443825    2    2   19   10
 -0.02697898328150484    2    2   19   14
 -0.01947443183636662    2    2   19   17
 0.613526793413724    2    2   19   19
 -0.03377421837958373    2    2   20    5
 0.01452445679317506    2    2   20   11
 -0.08646629997359069    2    2   20   15
 0.7075634823160851    2    2   20   20
 0.09312723663617081    2    2   21   13
 0.706345347816463    2    2   21   21
 0.0007967174414693564    2    2   22    1
 0.002761802856031908    2    2   22    2
 -0.03570763307558107    2    2   22    4
 0.01067012086067397    2    2   22    6
 -0.0440211270556805    2    2   22    9
 0.00905219479010903    2    2   22   10
 0.08657209891799079    2    2   22   14
 -0.05168181323740493    2    2   22   17
 -0.01033102868273228    2    2   22   19
 0.6989778149031972    2    2   22   22
 0.002206348205087192    2    2   23    1
 0.01026071329146888    2    2   23    2
 -0.01118915586279878    2    2   23    4
 0.004762999603143721    2    2   23    6
 -0.01584824516201643    2    2   23    9
 0.07245536661950505    2    2   23   10
 -0.04060626617006433    2    2   23   14
 -0.0522725381522442    2    2   23   17
 -0.05967645652121579    2    2   23   19
 -0.007230358900619833    2    2   23   22
 0.6886755163416585    2    2   23   23
 -0.04571908113745228    2    2   24    3
 0.01883342539327429    2    2   24    7
 -0.0001430310718654522    2    2   24    8
 0.1174105411748891    2    2   24   12
 0.006951163760787969    2    2   24   16
 0.05531151341819873    2    2   24   18
 0.7012157086594654    2    2   24   24
 0.01877416939881622    3    1    3    1
 0.02282529076723331    3    1    3    2
 0.002588056147622766    3    1    4    3
 0.00423520157228979    3    1    6    3
 -0.01081073112359906    3    1    7    1
 -0.009887132571602203    3    1    7    2
 -0.003643524714893197    3    1    7    4
 -0.004932880076330351    3    1    7    6
 -0.01106408487280084    3    1    8    1
 -0.007925414036493099    3    1    8    2
 -0.008622719048091743    3    1    8    4
 -0.00209040284153052    3    1    8    6
 0.001374500747100377    3    1    9    3
 0.001692468099073972    3    1    9    7
 0.004575552834024402    3    1    9    8
 0.001832419632694687    3    1   10    3
 0.0001074894032817088    3    1   10    7
 0.001414303676353996    3    1   10    8
 -0.0227385523968277    3    1   12    1
 -0.01275636202658957    3    1   12    2
 -0.0006739659390239362    3    1   12    4
 -0.006651799021306201    3    1   12    6
 0.00465799586040967    3    1   12    9
 0.002045217570659783    3    1   12   10
 0.007080659602872979    3    1   13    5
 -0.0005123764132681942    3    1   13   11
 -0.009762231037881116    3    1   14    3
 0.004715651352016256    3    1   14    7
 0.006277171046142485    3    1   14    8
 0.006899531635470216    3    1   14   12
 0.006457873640869102    3    1   15   13
 -0.002746520988775694    3    1   16    1
 -0.0008998252282881507    3    1   16    2
 0.0003818588135579008    3    1   16    4
 -5.75094844947897e-05    3    1   16    6
 -0.003162818207295119    3    1   16    9
 -0.00231894215765557    3    1   16   10
 0.006053694078395067    3    1   16   14
 -0.009603957647599783    3    1   17    3
 0.005344212531104118    3    1   17    7
 0.003786426149631245    3    1   17    8
 0.01350850071587887    3    1   17   12
 -4.967760966713148e-05    3    1   17   16
 0.02338135576376888    3    1   18    1
 0.006278007345292647    3    1   18    2
 0.009995150381105098    3    1   18    4
 0.00122842612547775    3    1   18    6
 -0.00100202033350279    3    1   18    9
 -0.006678193713476684    3    1   18   10
 -0.004676970468938194    3    1   18   14
 -0.008965543850503622    3    1   18   17
 -0.001794283044390379    3    1   19    3
 0.000287370389694589    3    1   19    7
 -0.001199770572679679    3    1   19    8
 -0.002363729318623982    3    1   19   12
 0.0003197166697165917    3    1   19   16
 0.00793248825490574    3    1   19   18
 0.0008334223120700701    3    1   20   13
 0.01708209582341002    3    1   21    5
 -0.01189681172232411    3    1   21   11
 -0.001249772736470643    3    1   21   15
 0.0008874702222832283    3    1   21   20
 -0.008035944957187265    3    1   22    3
 0.004388110345662003    3    1   22    7
 0.003718011284305695    3    1   22    8
 0.005873143158988557    3    1   22   12
 5.020995078714938e-05    3    1   22   16
 -0.003174962151009756    3    1   22   18
 0.01346359504704711    3    1   23    3
 -0.007983003812202294    3    1   23    7
 -0.009758583684591898    3    1   23    8
 -0.009554155381612852    3    1   23   12
 -0.0007962289969949245    3    1   23   16
 0.009158332579448793    3    1   23   18
 -0.01182801156781018    3    1   24    1
 -0.005306296795621482    3    1   24    2
 0.01307130238946609    3    1   24    4
 -0.005770383917493135    3    1   24    6
 0.008280846069873756    3    1   24    9
 -0.01019970889908807    3    1   24   10
 0.001637752256749325    3    1   24   14
 0.003414233243298735    3    1   24   17
 -0.008014127311887239    3    1   24   19
 0.001301401528164011    3    1   24   22
 -0.003545331883171086    3    1   24   23
 0.02282529076723332    3    2    3    1
 0.1532399861986809    3    2    3    2
 -0.01966376972857543    3    2    4    3
 -0.003094016807227129    3    2    6    3
 -0.01280971713346848    3    2    7    1
 -0.04110175538696436    3    2    7    2
 -0.02370569469515842    3    2    7    4
 -0.05175313107032519    3    2    7    6
 -0.01275571690907024    3    2    8    1
 -0.007559297486934901    3    2    8    2
 -0.07515998755705751    3    2    8    4
 -0.01324026717345477    3    2    8    6
 0.06451483132493727    3    2    9    3
 0.01434966708220242    3    2    9    7
 0.08295343658150971    3    2    9    8
 0.03151621057692106    3    2   10    3
 -0.007887676127064551    3    2   10    7
 -0.008221974596796543    3    2   10    8
 -0.02484921619764355    3    2   12    1
 -0.03624557732283914    3    2   12    2
 0.01618694827559048    3    2   12    4
 -0.04380335944504206    3    2   12    6
 0.04119365569046035    3    2   12    9
 0.01995830861472732    3    2   12   10
 0.06535786252902617    3    2   13    5
 0.02777022080051538    3    2   13   11
 -0.04341934412085845    3    2   14    3
 0.01714015843914497    3    2   14    7
 0.0490281060776754    3    2   14    8
 0.0116602525121984    3    2   14   12
 0.1104725956584635    3    2   15   13
 -0.002607372186889769    3    2   16    1
 -0.003512892898193728    3    2   16    2
 -0.001069491433110191    3    2   16    4
 0.00460747837413903    3    2   16    6
 -0.05431181259128307    3    2   16    9
 -0.04198588891073966    3    2   16   10
 0.0902685268674893    3    2   16   14
 -0.02305457553443209    3    2   17    3
 0.009087680014587513    3    2   17    7
 -0.01589740215594829    3    2   17    8
 0.07748719554431668    3    2   17   12
 -0.01579711487213349    3    2   17   16
 0.0231738110980508    3    2   18    1
 -0.01874661176793527    3    2   18    2
 0.05353041986382914    3    2   18    4
 -0.01240194649501574    3    2   18    6
 0.001293348878394782    3    2   18    9
 -0.04290988736109429    3    2   18   10
 0.002476193612184097    3    2   18   14
 -0.03100546677534387    3    2   18   17
 -0.05069434799560331    3    2   19    3
 0.02540361136060762    3    2   19    7
 -0.003757414632323998    3    2   19    8
 0.01086512717400784    3    2   19   12
 0.0002749544996987381    3    2   19   16
 0.1051041243870972    3    2   19   18
 0.02374789047620428    3    2   20   13
 0.08715063967827902    3    2   21    5
 -0.04787758410970212    3    2   21   11
 -0.02662535474416102    3    2   21   15
 -0.009770427232040205    3    2   21   20
 -0.04377094532843715    3    2   22    3
 0.02444554702880528    3    2   22    7
 0.008343579452343351    3    2   22    8
 0.03287052919657586    3    2   22   12
 -0.0223357636274974    3    2   22   16
 -0.002901668726903564    3    2   22   18
 0.04764349846914998    3    2   23    3
 -0.03784963427777556    3    2   23    7
 -0.06814428785710105    3    2   23    8
 -0.02582558924289478    3    2   23   12
 0.008453329305394542    3    2   23   16
 0.05582677776703561    3    2   23   18
 -0.01298552936890438    3    2   24    1
 -0.01265182304508574    3    2   24    2
 0.05672999350871245    3    2   24    4
 -0.0254152028643926    3    2   24    6
 0.05586896114939927    3    2   24    9
 -0.03677146984635184    3    2   24   10
 0.0087079106442768    3    2   24   14
 0.01039061480227474    3    2   24   17
 -0.05004151316831793    3    2   24   19
 -0.007137847027246359    3    2   24   22
 -0.01748441131337265    3    2   24   23
 0.8644796506218309    3    3    1    1
 -0.006347090961280104    3    3    2    1
 0.6724246275841345    3    3    2    2
 0.656712648742986    3    3    3    3
 -0.006729410328413975    3    3    4    1
 -0.0141512171360326    3    3    4    2
 0.6007333880127577    3    3    4    4
 0.6170228754829008    3    3    5    5
 -0.0006334717624636678    3    3    6    1
 0.07733747949394089    3    3    6    2
 -0.03865362228910687    3    3    6    4
 0.3583518751305211    3    3    6    6
 -0.1065171825200406    3    3    7    3
 0.3480276638136616    3    3    7    7
 -0.01627463490044512    3    3    8    3
 0.09918916334499525    3    3    8    7
 0.5176884000695553    3    3    8    8
 0.0003356901583143422    3    3    9    1
 -0.01644623915312012    3    3    9    2
 0.02219044918320932    3    3    9    4
 -0.1007566602117893    3    3    9    6
 0.5151007480243841    3    3    9    9
 0.006284357866471026    3    3   10    1
 0.01627157881918725    3    3   10    2
 -0.1177316898991549    3    3   10    4
 0.04194586406811487    3    3   10    6
 -0.006116991070114968    3    3   10    9
 0.5253094273002216    3    3   10   10
 -0.1393964022772252    3    3   11    5
 0.5459960072532208    3    3   11   11
 -0.1055587986553804    3    3   12    3
 0.09933473972174961    3    3   12    7
 0.02569526888049886    3    3   12    8
 0.5217649224558564    3    3   12   12
 0.5253319473081998    3    3   13   13
 0.002778989978519305    3    3   14    1
 -0.05789943474190866    3    3   14    2
 -0.05588138692373903    3    3   14    4
 -0.03035681340157808    3    3   14    6
 -0.01565371609623707    3    3   14    9
 -0.02377590321288596    3    3   14   10
 0.501433142800888    3    3   14   14
 0.02824423728067661    3    3   15    5
 0.02863742803273913    3    3   15   11
 0.4988624169769071    3    3   15   15
 -0.02846809348341457    3    3   16    3
 0.006301514566531114    3    3   16    7
 0.007001922432929589    3    3   16    8
 -0.02000573186441093    3    3   16   12
 0.4923340469350757    3    3   16   16
 0.004575043161643783    3    3   17    1
 -0.079563433247888    3    3   17    2
 -0.01508855738731113    3    3   17    4
 -0.06144578620597895    3    3   17    6
 -0.005270516607164699    3    3   17    9
 0.01645576613498866    3    3   17   10
 0.01040701571398238    3    3   17   14
 0.5357175519808639    3    3   17   17
 -0.001549011588634227    3    3   18    3
 -0.01836298588002571    3    3   18    7
 -0.09960415853896142    3    3   18    8
 -0.06020755125866362    3    3   18   12
 0.001697757018595258    3    3   18   16
 0.5902793165931721    3    3   18   18
 -0.0009629401586623174    3    3   19    1
 -0.00158683298678785    3    3   19    2
 -0.004091428478048883    3    3   19    4
 0.0275509657966112    3    3   19    6
 -0.09919228349558649    3    3   19    9
 0.02366931139758153    3    3   19   10
 -0.01105240740569632    3    3   19   14
 -0.01462379842869396    3    3   19   17
 0.585287932189966    3    3   19   19
 -0.01732011307376995    3    3   20    5
 0.01371103198890713    3    3   20   11
 -0.04665180155459522    3    3   20   15
 0.6057721461577655    3    3   20   20
 0.06607937579625464    3    3   21   13
 0.647154672745912    3    3   21   21
 -0.001545432641205266    3    3   22    1
 -0.01950392315270064    3    3   22    2
 -0.02348282524457189    3    3   22    4
 -0.00168210535775366    3    3   22    6
 -0.02934235896371372    3    3   22    9
 0.008422660375433053    3    3   22   10
 0.0570831764900311    3    3   22   14
 -0.02312106656409446    3    3   22   17
 0.005602636260462469    3    3   22   19
 0.6148274820854625    3    3   22   22
 0.005184846286174606    3    3   23    1
 0.02743202709564703    3    3   23    2
 0.009474719353177872    3    3   23    4
 0.01035001414856504    3    3   23    6
 -0.0295615348275675    3    3   23    9
 0.04970715399696626    3    3   23   10
 -0.04439539133445285    3    3   23   14
 -0.04292059327762265    3    3   23   17
 -0.03353930486338016    3    3   23   19
 -0.02460497342052637    3    3   23   22
 0.6434111259058686    3    3   23   23
 -0.02508902968258059    3    3   24    3
 0.01137644924987022    3    3   24    7
 0.009974491650124311    3    3   24    8
 0.09651390553180576    3    3   24   12
 0.002722759218550294    3    3   24   16
 0.03209787605490415    3    3   24   18
 0.646333300366323    3    3   24   24
 -0.1316311278626472    4    1    1    1
 0.01621498744079066    4    1    2    1
 -0.01335777948083887    4    1    2    2
 -0.006729410328413963    4    1    3    3
 0.02953696558751097    4    1    4    1
 0.02338507142191201    4    1    4    2
 0.009231368123470042    4    1    4    4
 -0.004045492696693233    4    1    5    5
 -0.001044898754210624    4    1    6    1
 -0.009628829614549674    4    1    6    2
 0.004226201218172642    4    1    6    4
 -0.006587422080128601    4    1    6    6
 0.000829292221523876    4    1    7    3
 -0.001708791409373624    4    1    7    7
 -0.00487995173806075    4    1    8    3
 0.0006008858268984241    4    1    8    7
 -0.00119972501765024    4    1    8    8
 0.005552255198266771    4    1    9    1
 0.01068455118657514    4    1    9    2
 -0.004030902309899265    4    1    9    4
 0.006416278468934581    4    1    9    6
 -0.01043032521882928    4    1    9    9
 -0.03153277722380055    4    1   10    1
 -0.01391573147585393    4    1   10    2
 -0.005300221105467475    4    1   10    4
 -0.006807306082927675    4    1   10    6
 0.003530743904436948    4    1   10    9
 0.001816896318100841    4    1   10   10
 0.004069045088873615    4    1   11    5
 -0.005148754191986512    4    1   11   11
 0.006245105068437029    4    1   12    3
 -0.002644498394853362    4    1   12    7
 -0.001528097742634681    4    1   12    8
 -0.003784357878585126    4    1   12   12
 -0.005761350070063594    4    1   13   13
 -0.01360380499362327    4    1   14    1
 -9.263946011941251e-05    4    1   14    2
 0.002170501854259722    4    1   14    4
 0.0001261326211158472    4    1   14    6
 -0.001717391445074624    4    1   14    9
 0.007713967805709376    4    1   14   10
 -0.0005225112803628631    4    1   14   14
 -0.007181133468494853    4    1   15    5
 0.001171714420344659    4    1   15   11
 -0.003449629841062151    4    1   15   15
 -0.0002311572671688148    4    1   16    3
 -0.001070997348434405    4    1   16    7
 -0.003228507863665632    4    1   16    8
 0.001889163375113356    4    1   16   12
 -0.004441327967771168    4    1   16   16
 -0.01610970065131023    4    1   17    1
 0.0044774154362463    4    1   17    2
 -0.01419405429878236    4    1   17    4
 0.005181405391153121    4    1   17    6
 -0.005929842782052362    4    1   17    9
 0.0153265722277515    4    1   17   10
 0.002141754667280987    4    1   17   14
 -0.002051183226010972    4    1   17   17
 0.005043345060439822    4    1   18    3
 -0.002444769248497116    4    1   18    7
 -0.001656457821628135    4    1   18    8
 -0.001440666080336976    4    1   18   12
 0.002306163442111605    4    1   18   16
 -0.002945677190034915    4    1   18   18
 -0.009832702114787017    4    1   19    1
 -0.009218973081070055    4    1   19    2
 0.003113233113848406    4    1   19    4
 -0.005759732281697901    4    1   19    6
 0.00736418259851896    4    1   19    9
 -0.006687832162987691    4    1   19   10
 0.003531543339539272    4    1   19   14
 0.007969485056134569    4    1   19   17
 -0.01525086886018738    4    1   19   19
 0.01902260688192391    4    1   20    5
 -0.01263881018681924    4    1   20   11
 -0.001674348400582094    4    1   20   15
 -0.000146010405635116    4    1   20   20
 0.0003537331582762538    4    1   21   13
 0.0008567121276233441    4    1   21   21
 -0.001861690500489271    4    1   22    1
 -0.003426269818386905    4    1   22    2
 0.01903749057240845    4    1   22    4
 -0.006371591099873345    4    1   22    6
 0.009226208375910492    4    1   22    9
 -0.0122315206953637    4    1   22   10
 -0.0003466651531282979    4    1   22   14
 -0.0018580597571449    4    1   22   17
 -0.007128048096267027    4    1   22   19
 -0.001514835591512224    4    1   22   22
 -0.008654656719186839    4    1   23    1
 -0.00357390158348562    4    1   23    2
 -0.0004322244712738329    4    1   23    4
 -0.001753955950999062    4    1   23    6
 0.003308882186909266    4    1   23    9
 -1.157421363192387e-06    4    1   23   10
 0.001540314311179673    4    1   23   14
 0.004622966456330728    4    1   23   17
 -0.005176475304067537    4    1   23   19
 -0.003573588793589211    4    1   23   22
 0.0003744183248009575    4    1   23   23
 0.01553486501826926    4    1   24    3
 -0.008926856647402327    4    1   24    7
 -0.009157076876569834    4    1   24    8
 -0.01246687321150265    4    1   24   12
 0.0007679498202084237    4    1   24   16
 0.009416608906786599    4    1   24   18
 -0.005583198845937207    4    1   24   24
 0.08925458468148005    4    2    1    1
 -0.007321096615841043    4    2    2    1
 -0.01196177062104456    4    2    2    2
 -0.01415121713603262    4    2    3    3
 0.023385071421912    4    2    4    1
 0.1266161337015044    4    2    4    2
 0.07001871336607653    4    2    4    4
 0.03739945157593193    4    2    5    5
 -0.009306207438183866    4    2    6    1
 -0.01737064971138015    4    2    6    2
 -0.002081831712366397    4    2    6    4