 &FCI NORB=  24,NELEC=10,MS2=0,
  ORBSYM=1,1,1,1,1,1,1,1,1,1,1,1,1,1,1,1,1,1,1,1,1,1,1,1,
  ISYM=1,
 &END
 4.742002403841905    1    1    1    1
 -0.4760195688803102    1    1    2    1
 1.135862572123656    1    1    2    2
 1.088091542031149    1    1    3    3
 1.865541834624829e-11    1    1    4    1
 -7.366127911119221e-12    1    1    4    2
 1.549082430402779e-15    1    1    4    3
 1.075366118638717    1    1    4    4
 0.02003472731116518    1    1    5    1
 -0.03029638717143751    1    1    5    2
 -1.184772032203677e-10    1    1    5    4
 0.1981391883739189    1    1    5    5
 1.931049040399989e-11    1    1    6    1
 -2.53203673094299e-11    1    1    6    2
 -1.482330756565406e-14    1    1    6    3
 0.0993291503970911    1    1    6    4
 1.784705757457123e-11    1    1    6    5
 0.1910502216962695    1    1    6    6
 0.002977449506023802    1    1    7    1
 -0.003872105038368001    1    1    7    2
 1.449580595604308e-11    1    1    7    4
 -0.1109614462872715    1    1    7    5
 -1.980763744610872e-10    1    1    7    6
 0.9364807729410833    1    1    7    7
 -0.05406795579168033    1    1    8    1
 0.06625870868018097    1    1    8    2
 1.391602035738361e-09    1    1    8    4
 0.00679707364836876    1    1    8    5
 1.793484330312572e-10    1    1    8    6
 -0.07378073276027659    1    1    8    7
 0.201952220139878    1    1    8    8
 -7.738710635915588e-10    1    1    9    1
 9.429565868597198e-10    1    1    9    2
 1.492592363053277e-14    1    1    9    3
 -0.09989609909474099    1    1    9    4
 1.083839716686869e-10    1    1    9    5
 -0.01182052228348088    1    1    9    6
 -1.044044044247062e-09    1    1    9    7
 3.630083243863985e-11    1    1    9    8
 0.2000645025346168    1    1    9    9
 -0.5077460492942215    1    1   10    3
 -7.172394030834652e-14    1    1   10    4
 -4.40329164463877e-15    1    1   10    7
 0.948022944598549    1    1   10   10
 6.184370488823604e-11    1    1   11    1
 -8.093276295315218e-11    1    1   11    2
 6.850260313431982e-14    1    1   11    3
 -0.4850854967342513    1    1   11    4
 6.834904960105139e-11    1    1   11    5
 -0.07781738107227795    1    1   11    6
 1.892573096666777e-10    1    1   11    7
 -1.852895072867544e-09    1    1   11    8
 0.1296499067952896    1    1   11    9
 0.9001536954050154    1    1   11   11
 -0.03464397792331523    1    1   12    1
 0.03910917056626795    1    1   12    2
 -4.384654744616944e-15    1    1   12    3
 2.041247626859816e-10    1    1   12    4
 -0.05740591432518161    1    1   12    5
 -8.567744662844044e-11    1    1   12    6
 0.4960531332611309    1    1   12    7
 -0.09023243141094911    1    1   12    8
 -1.344184550120445e-09    1    1   12    9
 3.482013126183264e-11    1    1   12   11
 1.057179936421615    1    1   12   12
 -0.3895904025622884    1    1   13    1
 0.4181596797113303    1    1   13    2
 -2.140233028915259e-10    1    1   13    4
 -0.03714318128577825    1    1   13    5
 -4.310010726408468e-11    1    1   13    6
 -0.01590094685799992    1    1   13    7
 0.08953707563762454    1    1   13    8
 1.339243319012557e-09    1    1   13    9
 1.999054186074822e-10    1    1   13   11
 0.0399767331333928    1    1   13   12
 0.8026824157406478    1    1   13   13
 -0.00253654756900504    1    1   14    1
 0.002736399798414678    1    1   14    2
 -8.62844634391853e-10    1    1   14    4
 -0.0004581291904980617    1    1   14    5
 8.140563955078613e-10    1    1   14    6
 0.008223407227671882    1    1   14    7
 -0.001086094844540372    1    1   14    8
 3.622659326381686e-10    1    1   14    9
 1.272157303111587e-09    1    1   14   11
 0.01636334826852861    1    1   14   12
 0.003715549691326854    1    1   14   13
 0.1791164785618359    1    1   14   14
 0.01111038891654586    1    1   15    3
 2.793124167630328e-15    1    1   15    4
 -0.0183344742187039    1    1   15   10
 -1.907511056959287e-15    1    1   15   11
 0.1792261476490263    1    1   15   15
 -1.550628685370633e-09    1    1   16    1
 1.667998398128016e-09    1    1   16    2
 -2.995451856237048e-15    1    1   16    3
 0.002175601236269008    1    1   16    4
 -2.022012611464568e-10    1    1   16    5
 -0.001683065139916995    1    1   16    6
 3.923319167643564e-09    1    1   16    7
 -4.203194780481824e-10    1    1   16    8
 -0.0009021931564828496    1    1   16    9
 4.163768858188499e-15    1    1   16   10
 -0.003241615940733723    1    1   16   11
 7.853355625097452e-09    1    1   16   12
 2.313620626678836e-09    1    1   16   13
 1.284502157417045e-10    1    1   16   14
 0.1788591385090775    1    1   16   16
 8.809599777182811e-09    1    1   17    3
 -1.453889945154246e-08    1    1   17   10
 3.478330679040909e-10    1    1   17   15
 0.1787875087949526    1    1   17   17
 1.044947226204693e-08    1    1   18    1
 -1.108868710357681e-08    1    1   18    2
 1.314046179493449e-14    1    1   18    3
 -0.09063169801070009    1    1   18    4
 -1.016632038494951e-09    1    1   18    5
 0.006899025218457725    1    1   18    6
 4.56873682831184e-09    1    1   18    7
 -4.042953691190472e-09    1    1   18    8
 0.02913002482776767    1    1   18    9
 0.1436518743816547    1    1   18   11
 7.675421628133838e-09    1    1   18   12
 -1.677744940198345e-08    1    1   18   13
 5.851237272480603e-10    1    1   18   14
 -0.001256745758767934    1    1   18   16
 0.2139958365995442    1    1   18   18
 0.1470413885823286    1    1   19    1
 -0.155932434236429    1    1   19    2
 6.155537537940467e-09    1    1   19    4
 -0.01525376544365581    1    1   19    5
 -5.03165568035307e-10    1    1   19    6
 0.06535614413857388    1    1   19    7
 -0.05164521359369086    1    1   19    8
 -2.719302898891609e-09    1    1   19    9
 -9.663039716480137e-09    1    1   19   11
 0.1115199182655759    1    1   19   12
 -0.2370565446989175    1    1   19   13
 0.0006912470179805813    1    1   19   14
 1.94774960049493e-10    1    1   19   16
 5.782546448618309e-09    1    1   19   18
 0.2945246692808948    1    1   19   19
 0.001552444869425343    1    1   20    1
 -7.538362876265352e-05    1    1   20    2
 1.147948763012098e-14    1    1   20    4
 -0.0001364962389722321    1    1   20    5
 -6.389632584787029e-13    1    1   20    6
 1.362225920440057e-05    1    1   20    7
 0.0008246293408969157    1    1   20    8
 1.310435250795622e-11    1    1   20    9
 -1.481299001120556e-12    1    1   20   11
 0.0002885528262222668    1    1   20   12
 0.0009036894847465047    1    1   20   13
 -0.000205326585355671    1    1   20   14
 -1.005691412258631e-10    1    1   20   16
 -2.498084659967217e-11    1    1   20   18
 -0.0003395788176836906    1    1   20   19
 0.9261125240779309    1    1   20   20
 8.795870751382362e-05    1    1   21    3
 -2.119116111060279e-15    1    1   21    6
 4.57354602700252e-15    1    1   21    9
 -0.0001181676166285751    1    1   21   10
 -0.0001781205273736444    1    1   21   15
 -1.414644115384385e-10    1    1   21   17
 0.9261157607586868    1    1   21   21
 3.258486788879839e-13    1    1   22    1
 -3.637092831487071e-13    1    1   22    2
 0.001158347676736772    1    1   22    4
 -4.190892657310477e-12    1    1   22    5
 0.005800344914430511    1    1   22    6
 7.708476799089809e-13    1    1   22    7
 1.876723560065343e-10    1    1   22    8
 -0.01329181094810474    1    1   22    9
 0.001746903300499927    1    1   22   11
 -4.079042923473952e-12    1    1   22   12
 2.718571922482108e-12    1    1   22   13
 5.792001641215065e-11    1    1   22   14
 -0.0001239798484599337    1    1   22   16
 0.001411702006820014    1    1   22   18
 -9.780629051206772e-11    1    1   22   19
 3.379215004360028e-14    1    1   22   20
 0.9258639820092804    1    1   22   22
 -3.337820641142646e-13    1    1   23    3
 2.079709513678399e-12    1    1   23   10
 1.168167896195929e-10    1    1   23   15
 -0.0001472556368695371    1    1   23   17
 0.9261230564412345    1    1   23   23
 -0.001079153929894865    1    1   24    1
 0.0009158115035506759    1    1   24    2
 -1.189565264656539e-13    1    1   24    4
 -0.003974906469485916    1    1   24    5
 -4.117157368906748e-12    1    1   24    6
 -0.001219912513411664    1    1   24    7
 0.009550854685719415    1    1   24    8
 1.364599904823372e-10    1    1   24    9
 -2.58623489309928e-12    1    1   24   11
 0.0004550616472479886    1    1   24   12
 -0.001007506686609895    1    1   24   13
 -0.0001135597498328771    1    1   24   14
 -5.8147215476834e-11    1    1   24   16
 8.381195835006211e-11    1    1   24   18
 0.001225822059593814    1    1   24   19
 -7.059138416029038e-06    1    1   24   20
 6.980264579914416e-14    1    1   24   22
 0.9259920273413547    1    1   24   24
 -0.4760195688803097    2    1    1    1
 0.07738816880874599    2    1    2    1
 -0.02097366730037155    2    1    2    2
 -0.01373870966228376    2    1    3    3
 -2.052733281744445e-12    2    1    4    1
 1.513478000263736e-12    2    1    4    2
 -0.01348577718148635    2    1    4    4
 -0.003287192087640393    2    1    5    1
 0.0008930122961359046    2    1    5    2
 1.856673394005376e-12    2    1    5    4
 -0.0002113899906798557    2    1    5    5
 -3.050089090918146e-12    2    1    6    1
 9.340575211535641e-13    2    1    6    2
 -0.001665305830455899    2    1    6    4
 -1.753987144383886e-13    2    1    6    5
 -0.0002067673947070409    2    1    6    6
 -0.0004514356488360777    2    1    7    1
 0.0001531595293881511    2    1    7    2
 -3.294933454155521e-13    2    1    7    4
 0.001282409342784133    2    1    7    5
 2.364975124204169e-12    2    1    7    6
 -0.009650314440167096    2    1    7    7
 0.008842392258329538    2    1    8    1
 -0.002425702143795699    2    1    8    2
 -3.485973453159055e-11    2    1    8    4
 -9.965897777856909e-05    2    1    8    5
 -4.599755918445036e-12    2    1    8    6
 0.001539771202888148    2    1    8    7
 -0.0005251713615194348    2    1    8    8
 1.26370977246032e-10    2    1    9    1
 -3.477573971379127e-11    2    1    9    2
 0.002525043018645708    2    1    9    4
 -1.769714573198027e-12    2    1    9    5
 0.0003119130654038443    2    1    9    6
 2.202377307445816e-11    2    1    9    7
 -9.714254903820348e-13    2    1    9    8
 -0.0004758055810825648    2    1    9    9
 0.01565115931660489    2    1   10    3
 2.211133493367646e-15    2    1   10    4
 -0.01800404351152187    2    1   10   10
 -1.118677046611326e-11    2    1   11    1
 2.600390166715016e-12    2    1   11    2
 -2.131521457961516e-15    2    1   11    3
 0.01508102066863406    2    1   11    4
 -1.457753082866879e-12    2    1   11    5
 0.001863251192887121    2    1   11    6
 -5.395109696346582e-12    2    1   11    7
 4.054808290111686e-11    2    1   11    8
 -0.002841210419849098    2    1   11    9
 -0.01703568759966146    2    1   11   11
 0.005714906928436157    2    1   12    1
 -0.001549026686232345    2    1   12    2
 -6.334694225613978e-12    2    1   12    4
 0.001964977629200789    2    1   12    5
 2.826564727809091e-12    2    1   12    6
 -0.01422930978974973    2    1   12    7
 0.002090921737809112    2    1   12    8
 3.104729193230568e-11    2    1   12    9
 -1.200828064962467e-12    2    1   12   11
 -0.0214976670410596    2    1   12   12
 0.06361772071132758    2    1   13    1
 -0.01747927648672069    2    1   13    2
 7.545723422411653e-12    2    1   13    4
 0.0007074740039092157    2    1   13    5
 1.502843696360772e-12    2    1   13    6
 0.0004191578775080546    2    1   13    7
 -0.002090051266100352    2    1   13    8
 -3.12269847851833e-11    2    1   13    9
 -5.318759978501985e-12    2    1   13   11
 -0.0008480503683061589    2    1   13   12
 -0.01484088178297199    2    1   13   13
 0.0004152870713850637    2    1   14    1
 -0.0001137495207380111    2    1   14    2
 2.689587725617411e-11    2    1   14    4
 3.995768091161349e-05    2    1   14    5
 3.034751182608958e-12    2    1   14    6
 -0.000257320948221023    2    1   14    7
 2.804536227090552e-05    2    1   14    8
 -4.71468767559413e-12    2    1   14    9
 -3.049558335225573e-11    2    1   14   11
 -0.0003966435169596348    2    1   14   12
 -8.813273314079304e-05    2    1   14   13
 -8.765298511902542e-06    2    1   14   14
 -0.0003693179489002826    2    1   15    3
 0.0004251135135369354    2    1   15   10
 -1.10829797864476e-05    2    1   15   15
 2.537331766924637e-10    2    1   16    1
 -6.954601349514067e-11    2    1   16    2
 -6.852703446857123e-05    2    1   16    4
 1.971747929721446e-11    2    1   16    5
 -7.749886394280706e-06    2    1   16    6
 -1.22545221328062e-10    2    1   16    7
 1.13974243759603e-11    2    1   16    8
 1.300838097941688e-05    2    1   16    9
 7.737619469805903e-05    2    1   16   11
 -1.902242887694258e-10    2    1   16   12
 -5.498347944905092e-11    2    1   16   13
 -3.620985693725544e-12    2    1   16   14
 -1.506293669718611e-06    2    1   16   16
 -2.928600671080769e-10    2    1   17    3
 3.371032334589195e-10    2    1   17   10
 -8.008972150339567e-12    2    1   17   15
 -1.04401017483855e-06    2    1   17   17
 -1.706034318601311e-09    2    1   18    1
 4.689252948125864e-10    2    1   18    2
 0.002985516322225659    2    1   18    4
 -3.290829185379424e-13    2    1   18    5
 0.0003686356306271412    2    1   18    6
 -1.541208347313123e-10    2    1   18    7
 8.669977598060101e-11    2    1   18    8
 -0.000562718986797001    2    1   18    9
 -0.003374770714024086    2    1   18   11
 -1.908288739462574e-10    2    1   18   12
 4.014088465462631e-10    2    1   18   13
 -7.701172944073448e-12    2    1   18   14
 1.558247959510016e-05    2    1   18   16
 -0.0006697801770692252    2    1   18   18
 -0.0240034918663052    2    1   19    1
 0.006598983661859997    2    1   19    2
 -2.031413835812867e-10    2    1   19    4
 7.10228931520952e-06    2    1   19    5
 -2.477203492261904e-11    2    1   19    6
 -0.002212552269945415    2    1   19    7
 0.001117343420907574    2    1   19    8
 5.423019010614283e-11    2    1   19    9
 2.27157927646138e-10    2    1   19   11
 -0.002769703851653722    2    1   19   12
 0.005671672633758051    2    1   19   13
 -2.306685167053413e-05    2    1   19   14
 -7.146959355612265e-12    2    1   19   16
 -1.395753434588834e-10    2    1   19   18
 -0.002615266843985783    2    1   19   19
 -0.000158982531185623    2    1   20    1
 -6.041753086365219e-05    2    1   20    2
 -4.427747078399161e-13    2    1   20    4
 -1.747738545960541e-06    2    1   20    5
 -5.695641361400498e-14    2    1   20    6
 2.739374160473353e-05    2    1   20    7
 -7.818993270483319e-06    2    1   20    8
 -5.897247110712377e-14    2    1   20    9
 2.502999906830038e-13    2    1   20   11
 1.597350996255787e-05    2    1   20   12
 -1.316324058078556e-05    2    1   20   13
 7.724242840015572e-07    2    1   20   14
 3.657727739010917e-13    2    1   20   16
 5.378029957684644e-13    2    1   20   18
 6.964356325548421e-06    2    1   20   19
 -0.002004093813261888    2    1   20   20
 2.335378066096034e-05    2    1   21    3
 -9.964253689554686e-06    2    1   21   10
 6.820613141071754e-07    2    1   21   15
 5.414043196202509e-13    2    1   21   17
 -0.001978962793075292    2    1   21   21
 -3.864394159455955e-14    2    1   22    1
 -1.328509330571559e-15    2    1   22    2
 -4.078818586815303e-05    2    1   22    4
 -9.319315473201446e-14    2    1   22    5
 -1.211817400421942e-05    2    1   22    6
 7.335258216309095e-13    2    1   22    7
 -4.898010494676685e-13    2    1   22    8
 2.91812598039214e-05    2    1   22    9
 5.551279690138259e-05    2    1   22   11
 5.469665217742929e-13    2    1   22   12
 1.163416334292411e-14    2    1   22   13
 -3.796325254710825e-14    2    1   22   14
 5.820741968025225e-08    2    1   22   16
 8.055756977385182e-06    2    1   22   18
 -4.658989073241225e-13    2    1   22   19
 -4.982014101782644e-15    2    1   22   20
 -0.001980464922508599    2    1   22   22
 7.890373779553516e-13    2    1   23    3
 -4.474390188268858e-13    2    1   23   10
 -2.857281902925339e-13    2    1   23   15
 3.723003822364082e-07    2    1   23   17
 -7.962866088758495e-15    2    1   23   21
 -0.001906856861511078    2    1   23   23
 0.0001740873225634156    2    1   24    1
 -4.624449850695e-05    2    1   24    2
 -7.698198967390634e-13    2    1   24    4
 2.773983736290732e-06    2    1   24    5
 -9.002527519446486e-14    2    1   24    6
 2.914877868525382e-05    2    1   24    7
 -2.319483624571361e-05    2    1   24    8
 -2.400477912892828e-13    2    1   24    9
 4.438217233458736e-13    2    1   24   11
 3.616164155739105e-05    2    1   24   12
 -3.645596349068329e-05    2    1   24   13
 7.74757986669967e-07    2    1   24   14
 3.447465965272007e-13    2    1   24   16
 1.298077047497363e-12    2    1   24   18
 1.720135912986433e-05    2    1   24   19
 -3.00032903970248e-07    2    1   24   20
 6.723462822582238e-15    2    1   24   22
 -0.001907134760426293    2    1   24   24
 1.135862572123655    2    2    1    1
 -0.02097366730037156    2    2    2    1
 0.7997276597241431    2    2    2    2
 0.7719302331814845    2    2    3    3
 3.01973509314386e-12    2    2    4    1
 6.409409891797993e-12    2    2    4    2
 0.7647264068450853    2    2    4    4
 0.0008231357653270601    2    2    5    1
 -0.01649684193915021    2    2    5    2
 -7.515930740053861e-11    2    2    5    4
 0.1932455502903737    2    2    5    5
 1.055839824652674e-12    2    2    6    1
 -1.215358188403953e-11    2    2    6    2
 -9.156098771900906e-15    2    2    6    3
 0.0615153536816739    2    2    6    4
 1.338449805564248e-11    2    2    6    5
 0.1864343430649375    2    2    6    6
 0.0001985400708898981    2    2    7    1
 -0.001853397985839859    2    2    7    2
 7.615022864319837e-12    2    2    7    4
 -0.07929880266721472    2    2    7    5
 -1.399322628276446e-10    2    2    7    6
 0.7023566626046109    2    2    7    7
 -0.002243693788927322    2    2    8    1
 0.03010533506690271    2    2    8    2
 6.754210456219783e-10    2    2    8    4
 0.003899617064860947    2    2    8    5
 8.413578000866213e-11    2    2    8    6
 -0.04044945904970546    2    2    8    7
 0.192849704549363    2    2    8    8
 -3.249914410393867e-11    2    2    9    1
 4.264402740574187e-10    2    2    9    2
 7.273066167680563e-15    2    2    9    3
 -0.04824774091542346    2    2    9    4
 5.999642633259406e-11    2    2    9    5
 -0.005460033285257212    2    2    9    6
 -5.686736085163192e-10    2    2    9    7
 3.113072592200973e-11    2    2    9    8
 0.1909846702471688    2    2    9    9
 -0.2072330867737973    2    2   10    3
 -2.925758597031765e-14    2    2   10    4
 -1.959449970077272e-15    2    2   10    7
 0.6290546459089156    2    2   10   10
 3.198677710459255e-13    2    2   11    1
 -3.460536919038415e-11    2    2   11    2
 2.765459360342441e-14    2    2   11    3
 -0.1960114284646038    2    2   11    4
 4.128852649435132e-11    2    2   11    5
 -0.04220747002831235    2    2   11    6
 8.149568908301591e-11    2    2   11    7
 -1.111549429550044e-09    2    2   11    8
 0.0777738883481628    2    2   11    9
 0.5989772550301647    2    2   11   11
 -0.001317609799852953    2    2   12    1
 0.01597665268469852    2    2   12    2
 -1.78002444626927e-15    2    2   12    3
 8.212278646284495e-11    2    2   12    4
 -0.0185232034905283    2    2   12    5
 -2.90981487596233e-11    2    2   12    6
 0.2136294895423984    2    2   12    7
 -0.05015773926418371    2    2   12    8
 -7.509246327729128e-10    2    2   12    9
 1.057246228498149e-11    2    2   12   11
 0.6707196076345532    2    2   12   12
 -0.01595049063009932    2    2   13    1
 0.1624582042405717    2    2   13    2
 -8.24092347639048e-11    2    2   13    4
 -0.02682653287122735    2    2   13    5
 -1.857851074588482e-11    2    2   13    6
 -0.008558020998256109    2    2   13    7
 0.058026231116262    2    2   13    8
 8.655932612659182e-10    2    2   13    9
 1.066706076767454e-10    2    2   13   11
 0.02800466124898655    2    2   13   12
 0.5770670306963712    2    2   13   13
 -0.0001017557362423834    2    2   14    1
 0.00106620824911523    2    2   14    2
 -3.585925858551678e-10    2    2   14    4
 0.0002951780563456042    2    2   14    5
 8.739538690449248e-10    2    2   14    6
 0.003200428549959281    2    2   14    7
 -0.0005168162091109058    2    2   14    8
 2.788124870952216e-10    2    2   14    9
 7.376791295865548e-10    2    2   14   11
 0.009303802814741394    2    2   14   12
 0.002390681903802226    2    2   14   13
 0.1789861229832779    2    2   14   14
 0.004125609919157093    2    2   15    3
 1.057868795880129e-15    2    2   15    4
 -0.01084962897430659    2    2   15   10
 -1.116661601746908e-15    2    2   15   11
 0.1790547361113649    2    2   15   15
 -6.246180543123726e-11    2    2   16    1
 6.479062641145841e-10    2    2   16    2
 -1.232122109279458e-15    2    2   16    3
 0.0008888492232802551    2    2   16    4
 1.668228253765849e-10    2    2   16    5
 -0.00183463423947689    2    2   16    6
 1.530285200532049e-09    2    2   16    7
 -1.790433089738112e-10    2    2   16    8
 -0.000668818406001945    2    2   16    9
 2.468856405521967e-15    2    2   16   10
 -0.001884867060870122    2    2   16   11
 4.470325511238965e-09    2    2   16   12
 1.484818403646448e-09    2    2   16   13
 6.457815532323607e-11    2    2   16   14
 0.1788565470151154    2    2   16   16
 3.270923102575811e-09    2    2   17    3
 -8.603670653088008e-09    2    2   17   10
 2.072632204752622e-10    2    2   17   15
 0.1787918711600294    2    2   17   17
 4.280345451292024e-10    2    2   18    1
 -4.241450073004191e-09    2    2   18    2
 4.936763894871207e-15    2    2   18    3
 -0.03429644381865995    2    2   18    4
 -9.297560655809013e-10    2    2   18    5
 0.01384495546331441    2    2   18    6
 1.598870692743823e-09    2    2   18    7
 -2.632968774661537e-09    2    2   18    8
 0.01895458014732818    2    2   18    9
 0.08436741032606429    2    2   18   11
 4.192025608151101e-09    2    2   18   12
 -1.066505813697438e-08    2    2   18   13
 4.452303178914541e-10    2    2   18   14
 -0.0009869212198227173    2    2   18   16
 0.2023207758067614    2    2   18   18
 0.006029493599900854    2    2   19    1
 -0.05960372833861946    2    2   19    2
 2.327266956730044e-09    2    2   19    4
 -0.01380595354873031    2    2   19    5
 -9.680248065808972e-10    2    2   19    6
 0.02272756770249319    2    2   19    7
 -0.0336626001387553    2    2   19    8
 -1.77107728602157e-09    2    2   19    9
 -5.673420182435163e-09    2    2   19   11
 0.06101086123121607    2    2   19   12
 -0.1506570132997303    2    2   19   13
 0.0001968245127785193    2    2   19   14
 1.538288940672317e-11    2    2   19   16
 3.678124041450737e-09    2    2   19   18
 0.2535621911303696    2    2   19   19
 0.0001661274506577322    2    2   20    1
 -0.0005640709931689124    2    2   20    2
 -4.4138256951092e-12    2    2   20    4
 -0.00013378180347916    2    2   20    5
 -1.124900041447956e-12    2    2   20    6
 0.0002791703921923582    2    2   20    7
 0.0006007370387225725    2    2   20    8
 1.015357436012814e-11    2    2   20    9
 2.703654527092415e-13    2    2   20   11
 0.0002884212301904486    2    2   20   12
 0.0004248156670037627    2    2   20   13
 -0.0001650625495122598    2    2   20   14
 -8.109957810120509e-11    2    2   20   16
 -1.12854419463893e-11    2    2   20   18
 -0.0001522560070849282    2    2   20   19
 0.7756923713811971    2    2   20   20
 0.0002836014186017633    2    2   21    3
 -1.814689091955177e-15    2    2   21    6
 3.879787960915574e-15    2    2   21    9
 -0.0001148237308893706    2    2   21   10
 -0.0001423831907845748    2    2   21   15
 -1.130821721289819e-10    2    2   21   17
 0.7758559249393878    2    2   21   21
 2.469973187190142e-14    2    2   22    1
 -3.614654269484444e-13    2    2   22    2
 0.0002718022293601039    2    2   22    4
 -4.687114970649132e-12    2    2   22    5
 0.004986511979354491    2    2   22    6
 8.326117559729713e-12    2    2   22    7
 1.587820265177279e-10    2    2   22    8
 -0.01129068275275651    2    2   22    9
 0.002281148137759002    2    2   22   11
 3.494319295179425e-13    2    2   22   12
 2.430983545568437e-12    2    2   22   13
 4.720187809408374e-11    2    2   22   14
 -0.0001015042111276699    2    2   22   16
 0.001276047208866684    2    2   22   18
 -8.768401011782084e-11    2    2   22   19
 -3.060976114795539e-14    2    2   22   20
 0.7756135781564906    2    2   22   22
 7.646288861662874e-12    2    2   23    3
 -1.020929504145619e-12    2    2   23   10
 9.364194292419271e-11    2    2   23   15
 -0.0001179767079605561    2    2   23   17
 -1.112575519884879e-13    2    2   23   21
 0.7763511354848716    2    2   23   23
 -4.615386745491254e-05    2    2   24    1
 0.0002408099224325293    2    2   24    2
 -7.817540744172916e-12    2    2   24    4
 -0.003516692272939523    2    2   24    5
 -4.558134775955544e-12    2    2   24    6
 -0.0006415210559368604    2    2   24    7
 0.008098537190981834    2    2   24    8
 1.163855235612749e-10    2    2   24    9
 6.307157944654201e-13    2    2   24   11
 0.0008471868439737163    2    2   24   12
 -0.001216975765418634    2    2   24   13
 -8.438583025091287e-05    2    2   24   14
 -4.376154270229783e-11    2    2   24   16
 8.197661148669601e-11    2    2   24   18
 0.001185920212443652    2    2   24   19
 -5.294129146140831e-07    2    2   24   20
 1.700505028253367e-13    2    2   24   22
 0.7762214750663208    2    2   24   24
 0.03385765869117304    3    1    3    1
 0.0361501211445899    3    1    3    2
 -1.306081178245763e-12    3    1    4    3
 -0.001331799410443898    3    1    5    3
 -1.243820329263322e-12    3    1    6    3
 -0.0002062100704292564    3    1    7    3
 0.003027587743797821    3    1    8    3
 4.320367361112813e-11    3    1    9    3
 -0.03902022985243394    3    1   10    1
 -0.02129517921732368    3    1   10    2
 9.453485448390123e-13    3    1   10    4
 0.001188413631181834    3    1   10    5
 1.161789441993405e-12    3    1   10    6
 0.0001637325694917226    3    1   10    7
 -0.00340441369017094    3    1   10    8
 -4.874764717129991e-11    3    1   10    9
 5.314485841433879e-15    3    1   11    1
 2.878218458069094e-15    3    1   11    2
 -2.932204293461518e-12    3    1   11    3
 3.807481422206114e-12    3    1   11   10
 0.001675531570638619    3    1   12    3
 -0.00218015414305853    3    1   12   10
 0.01776502539500022    3    1   13    3
 -0.02418141703407194    3    1   13   10
 3.307197460917345e-15    3    1   13   11
 0.0001164742214161642    3    1   14    3
 -0.0001584783904646608    3    1   14   10
 0.0009215460817768981    3    1   15    1
 0.0004700194876839604    3    1   15    2
 2.035959486816982e-11    3    1   15    4
 0.0002073977763699445    3    1   15    5
 -1.873147297230277e-10    3    1   15    6
 2.999998895805594e-05    3    1   15    7
 0.0001184331383882242    3    1   15    8
 -2.676081926951055e-11    3    1   15    9
 2.947571737283193e-12    3    1   15   11
 5.287687873669907e-05    3    1   15   12
 0.000560122548174282    3    1   15   13
 6.25561717919015e-06    3    1   15   14
 7.092131545729415e-11    3    1   16    3
 -9.677677245144367e-11    3    1   16   10
 8.776129881985699e-12    3    1   16   15
 7.307633003149787e-10    3    1   17    1
 3.726883227880195e-10    3    1   17    2
 -2.566069141057031e-05    3    1   17    4
 1.644694673639792e-10    3    1   17    5
 0.0002361616207179511    3    1   17    6
 2.385069820770919e-11    3    1   17    7
 9.345591335915646e-11    3    1   17    8
 3.585332893018487e-05    3    1   17    9
 -3.814846738716423e-06    3    1   17   11
 4.192323643943347e-11    3    1   17   12
 4.44222161525939e-10    3    1   17   13
 8.001598275159333e-12    3    1   17   14
 -6.473223208081438e-06    3    1   17   16
 1.086107630630171e-15    3    1   18    1
 -4.689671188375199e-10    3    1   18    3
 6.493926800529622e-10    3    1   18   10
 -7.442226213549494e-11    3    1   18   15
 6.854495942481531e-05    3    1   18   17
 -0.006594828737189587    3    1   19    3
 0.009138519296124479    3    1   19   10
 -1.198154460506105e-15    3    1   19   11
 -0.0002843345692857254    3    1   19   15
 -2.302299891259862e-10    3    1   19   17
 -0.01410798381364788    3    1   20    3
 0.007448654236773517    3    1   20   10
 -1.01148346197273e-15    3    1   20   11
 -0.0001603982254608837    3    1   20   15
 -1.271798819027117e-10    3    1   20   17
 1.013709147139427e-05    3    1   21    1
 3.724826946143867e-05    3    1   21    2
 -2.016206847973901e-12    3    1   21    4
 -0.003155946251890248    3    1   21    5
 -6.055991757048911e-12    3    1   21    6
 0.02257994644719285    3    1   21    7
 -0.002484961294446762    3    1   21    8
 -3.487246650209804e-11    3    1   21    9
 7.516273357362863e-12    3    1   21   11
 0.0158995547244981    3    1   21   12
 -0.0002919279614721984    3    1   21   13
 0.0002635363099279926    3    1   21   14
 1.256665659866908e-10    3    1   21   16
 1.503634743079287e-10    3    1   21   18
 0.002152786836188509    3    1   21   19
 1.558494378667082e-06    3    1   21   20
 5.719513532824027e-13    3    1   22    3
 4.439302128836791e-15    3    1   22    7
 -2.85648056214136e-13    3    1   22   10
 3.120928739198585e-15    3    1   22   12
 1.466611268761874e-12    3    1   22   15
 -1.839777279484747e-06    3    1   22   17
 -1.210902655590116e-13    3    1   22   21
 -1.047454677599596e-13    3    1   23    1
 6.662041519640504e-13    3    1   23    2