 &FCI NORB=  24,NELEC=10,MS2=0,
  ORBSYM=1,1,1,1,1,1,1,1,1,1,1,1,1,1,1,1,1,1,1,1,1,1,1,1,
  ISYM=1,
 &END
 4.742588739416171    1    1    1    1
 -0.4695393890663848    1    1    2    1
 1.119674542761523    1    1    2    2
 1.084001733583368    1    1    3    3
 0.6498505789357428    1    1    4    4
 -0.05251613213714724    1    1    5    1
 0.08227508710676323    1    1    5    2
 0.7442731399295131    1    1    5    5
 0.06938257466454534    1    1    6    1
 -0.1022219031468907    1    1    6    2
 0.3617598329103279    1    1    6    5
 0.5612213507306658    1    1    6    6
 0.3809503092291742    1    1    7    4
 0.6215617672109739    1    1    7    7
 -0.03376799926203163    1    1    8    1
 0.04273900299030354    1    1    8    2
 0.03389672564117325    1    1    8    5
 0.04452116735812438    1    1    8    6
 0.2517142794592903    1    1    8    8
 0.0196587599612427    1    1    9    4
 0.06317203121181771    1    1    9    7
 0.238180033284305    1    1    9    9
 -0.4843190833179188    1    1   10    3
 0.8792335564182795    1    1   10   10
 0.09267051902144854    1    1   11    1
 -0.09648970740146674    1    1   11    2
 0.3049977147300069    1    1   11    5
 0.323507792642626    1    1   11    6
 0.03731968325360698    1    1   11    8
 0.8076917503963522    1    1   11   11
 0.2864169206933209    1    1   12    4
 0.3554817775797259    1    1   12    7
 0.050144636037185    1    1   12    9
 0.8076342892063312    1    1   12   12
 -0.2909656563562413    1    1   13    1
 0.3161798812430672    1    1   13    2
 0.2040102727031597    1    1   13    5
 0.040845577939529    1    1   13    6
 0.0543510322387054    1    1   13    8
 0.1433567355426132    1    1   13   11
 0.6894879782222149    1    1   13   13
 0.2648495072022552    1    1   14   14
 0.005011589686576476    1    1   15    4
 0.01964788335215208    1    1   15    7
 0.006627463424723075    1    1   15    9
 0.02154569157627124    1    1   15   12
 0.266940894655492    1    1   15   15
 -0.1020241407048001    1    1   16    1
 0.109452134016974    1    1   16    2
 0.1210867110397923    1    1   16    5
 0.06945275404004664    1    1   16    6
 0.03071151810740413    1    1   16    8
 0.1467040849260877    1    1   16   11
 0.1924701339370495    1    1   16   13
 0.3666363083000296    1    1   16   16
 0.1553992060597655    1    1   17    3
 -0.2134128733500241    1    1   17   10
 0.3389086277220354    1    1   17   17
 -0.1791928814309244    1    1   18    4
 -0.1634275392888524    1    1   18    7
 -0.005480523070727477    1    1   18    9
 -0.3396977192227262    1    1   18   12
 -0.004383229433596203    1    1   18   15
 0.5284686810687    1    1   18   18
 0.2717107783713433    1    1   19    1
 -0.2696242277664624    1    1   19    2
 0.06459175128739786    1    1   19    5
 0.1207859430067737    1    1   19    6
 -0.04223165649051746    1    1   19    8
 0.2581509025878708    1    1   19   11
 -0.1909502151282492    1    1   19   13
 -0.03975589541584345    1    1   19   16
 0.6205380777034378    1    1   19   19
 -0.005258841336949958    1    1   20    1
 0.004679615233739869    1    1   20    2
 0.001346823835868389    1    1   20    5
 -0.003474776608318498    1    1   20    6
 0.000736629444216046    1    1   20    8
 -0.002725955902304895    1    1   20   11
 0.01547483136190576    1    1   20   13
 -0.01722008637638068    1    1   20   16
 0.01050550744998634    1    1   20   19
 0.9251155564871795    1    1   20   20
 -0.01788110492232655    1    1   21   14
 0.9256471056790092    1    1   21   21
 0.001965560830663631    1    1   22    3
 -0.006627908552891723    1    1   22   10
 -0.01127294406338609    1    1   22   17
 0.9258954450619982    1    1   22   22
 -0.02113647200678241    1    1   23    1
 0.01715054538329833    1    1   23    2
 -6.537683982859835e-05    1    1   23    5
 -0.02058530462079101    1    1   23    6
 0.001308433321099712    1    1   23    8
 -0.03821002957850911    1    1   23   11
 0.03496735147785514    1    1   23   13
 -0.005554677051117025    1    1   23   16
 0.04687621746861625    1    1   23   19
 -0.002013478124843131    1    1   23   20
 0.9185862965252398    1    1   23   23
 0.00614915460438529    1    1   24    4
 0.03296086307297558    1    1   24    7
 0.0007588291168797826    1    1   24    9
 0.06206327247790019    1    1   24   12
 0.02582408820424539    1    1   24   15
 0.07168626878510023    1    1   24   18
 0.9119432100996658    1    1   24   24
 -0.469539389066385    2    1    1    1
 0.07529240242529876    2    1    2    1
 -0.02015326076634004    2    1    2    2
 -0.01345551856076362    2    1    3    3
 -0.00550335987095296    2    1    4    4
 0.008727172917451179    2    1    5    1
 -0.002212104141624627    2    1    5    2
 -0.007273967354229041    2    1    5    5
 -0.01103602967778492    2    1    6    1
 0.003082197931435649    2    1    6    2
 -0.005423232022300213    2    1    6    5
 -0.00521603314140066    2    1    6    6
 -0.005730055849906079    2    1    7    4
 -0.005992914090927725    2    1    7    7
 0.005554770888058134    2    1    8    1
 -0.001492948740395725    2    1    8    2
 -0.001099662264260267    2    1    8    5
 -0.0005430262131513652    2    1    8    6
 -0.0002466836656029979    2    1    8    8
 -0.0008683933579166362    2    1    9    4
 -0.0009122107287620107    2    1    9    7
 -0.0001496036437929067    2    1    9    9
 0.01457696307107127    2    1   10    3
 -0.01597309083751073    2    1   10   10
 -0.01459011190105218    2    1   11    1
 0.004036817198164041    2    1   11    2
 -0.009200790591861151    2    1   11    5
 -0.008561348615583499    2    1   11    6
 -0.0009974570685469207    2    1   11    8
 -0.01432057844570152    2    1   11   11
 -0.0087530308900981    2    1   12    4
 -0.009150730978486999    2    1   12    7
 -0.001409965404146801    2    1   12    9
 -0.01416130740058314    2    1   12   12
 0.04703459772727426    2    1   13    1
 -0.01271159713446468    2    1   13    2
 -0.005947789378067631    2    1   13    5
 -0.001793923817536176    2    1   13    6
 -0.001538966644295241    2    1   13    8
 -0.003693478340850983    2    1   13   11
 -0.01108709808552043    2    1   13   13
 -1.376028051045205e-05    2    1   14   14
 -0.0002822420896197459    2    1   15    4
 -0.000303906130554147    2    1   15    7
 -4.831296967073257e-05    2    1   15    9
 -0.0004684008652492138    2    1   15   12
 -3.135623004896671e-05    2    1   15   15
 0.01655404737060642    2    1   16    1
 -0.004463912386664855    2    1   16    2
 -0.003898047415955566    2    1   16    5
 -0.002115927466228467    2    1   16    6
 -0.0007821212683382976    2    1   16    8
 -0.003818266792910857    2    1   16   11
 -0.005063849363761519    2    1   16   13
 -0.002677142251082696    2    1   16   16
 -0.005097274648747575    2    1   17    3
 0.005584515523494011    2    1   17   10
 -0.001967324367357178    2    1   17   17
 0.005909607065603443    2    1   18    4
 0.006165220031471853    2    1   18    7
 0.0009476661830984373    2    1   18    9
 0.009550989864792804    2    1   18   12
 0.0003036761923344856    2    1   18   15
 -0.006514435782149629    2    1   18   18
 -0.04362503719172066    2    1   19    1
 0.01187085433635629    2    1   19    2
 -0.002204525506125455    2    1   19    5
 -0.004703441345505962    2    1   19    6
 0.0003996815108629684    2    1   19    8
 -0.007417171632321486    2    1   19   11
 0.005309571943692748    2    1   19   13
 0.0009373673482541484    2    1   19   16
 -0.009077246665300661    2    1   19   19
 0.0008509842428729839    2    1   20    1
 -0.0002375103896879352    2    1   20    2
 0.0001284607749717367    2    1   20    5
 0.0001666121494082626    2    1   20    6
 4.412025502048901e-07    2    1   20    8
 0.0001705972047847532    2    1   20   11
 -0.0001300943112882098    2    1   20   13
 3.427353642825088e-05    2    1   20   16
 0.0001293818057290237    2    1   20   19
 -0.001965433973797208    2    1   20   20
 4.67091365603338e-05    2    1   21   14
 -0.001941777399090143    2    1   21   21
 6.805722586087949e-05    2    1   22    3
 2.956157904240397e-05    2    1   22   10
 2.13594426712276e-05    2    1   22   17
 -0.001938166196079578    2    1   22   22
 0.00333562349820235    2    1   23    1
 -0.0008635093468776649    2    1   23    2
 0.000266060245919831    2    1   23    5
 0.0004598412781084094    2    1   23    6
 4.568404011000022e-06    2    1   23    8
 0.0007720621572641856    2    1   23   11
 -0.0003735964682435489    2    1   23   13
 1.094608958940106e-05    2    1   23   16
 0.0005516513595422272    2    1   23   19
 -2.157402902014019e-05    2    1   23   20
 -0.001979853832615313    2    1   23   23
 -0.0006395139812696509    2    1   24    4
 -0.0007230323361845411    2    1   24    7
 -0.0001367795379503189    2    1   24    9
 -0.001224895699322273    2    1   24   12
 -0.0001020835939936013    2    1   24   15
 0.0005390586773126647    2    1   24   18
 -0.002037420967865522    2    1   24   24
 1.119674542761524    2    2    1    1
 -0.02015326076634013    2    2    2    1
 0.7839478206340881    2    2    2    2
 0.7623377647515823    2    2    3    3
 0.5138119395922665    2    2    4    4
 -0.001831616283837051    2    2    5    1
 0.04378482452235422    2    2    5    2
 0.5676814866827342    2    2    5    5
 0.003072608716145146    2    2    6    1
 -0.05509026625847659    2    2    6    2
 0.2259551395349975    2    2    6    5
 0.4401454294526241    2    2    6    6
 0.2395737986370688    2    2    7    4
 0.4765066468819014    2    2    7    7
 -0.001321613305105338    2    2    8    1
 0.02003763820406967    2    2    8    2
 0.01131686379109207    2    2    8    5
 0.03227873678367884    2    2    8    6
 0.2486700673313529    2    2    8    8
 0.001242212259477269    2    2    9    4
 0.04481714775228462    2    2    9    7
 0.2366164768594279    2    2    9    9
 -0.1957445406684963    2    2   10    3
 0.5869137550176438    2    2   10   10
 0.004130649555987534    2    2   11    1
 -0.03713744623170803    2    2   11    2
 0.1163894573679206    2    2   11    5
 0.1538804348018876    2    2   11    6
 0.01735352710398055    2    2   11    8
 0.5460497374501708    2    2   11   11
 0.1079720800209826    2    2   12    4
 0.1689165200816046    2    2   12    7
 0.02411062238865531    2    2   12    9
 0.5442911059923895    2    2   12   12
 -0.01138234508016603    2    2   13    1
 0.1230120918366665    2    2   13    2
 0.09233940909633787    2    2   13    5
 -0.003364023560775539    2    2   13    6
 0.02880306265147682    2    2   13    8
 0.06713627960794082    2    2   13   11
 0.5070092596480388    2    2   13   13
 0.266095993760294    2    2   14   14
 -0.001262684176576189    2    2   15    4
 0.01296001647303314    2    2   15    7
 0.005720641157751164    2    2   15    9
 0.01225441785721297    2    2   15   12
 0.267776034862971    2    2   15   15
 -0.003893981531113909    2    2   16    1
 0.04165463559718244    2    2   16    2
 0.04659189506105216    2    2   16    5
 0.02473026581519988    2    2   16    6
 0.0172184117524848    2    2   16    8
 0.07367195973040749    2    2   16   11
 0.1062735669428396    2    2   16   13
 0.321304912273623    2    2   16   16
 0.05707787647766516    2    2   17    3
 -0.1117133339242852    2    2   17   10
 0.3049100688907783    2    2   17   17
 -0.06714536995116978    2    2   18    4
 -0.04692016621511474    2    2   18    7
 0.01129017627142451    2    2   18    9
 -0.1680232391696789    2    2   18   12
 0.0006239044280442196    2    2   18   15
 0.4122931671466376    2    2   18   18
 0.01087752573486289    2    2   19    1
 -0.09381632366882274    2    2   19    2
 0.01918059426752594    2    2   19    5
 0.04016730868064437    2    2   19    6
 -0.0375050640813469    2    2   19    8
 0.1326483824617134    2    2   19   11
 -0.1116377196749091    2    2   19   13
 -0.02746623386049048    2    2   19   16
 0.4736317291237172    2    2   19   19
 -0.0002051754359164028    2    2   20    1
 0.001179584076899319    2    2   20    2
 0.001617580180256512    2    2   20    5
 -0.00177340109619015    2    2   20    6
 0.0008036091878679398    2    2   20    8
 -0.001239749072305042    2    2   20   11
 0.01102416962239776    2    2   20   13
 -0.01369089639317314    2    2   20   16
 0.00926148663270393    2    2   20   19
 0.767981067411262    2    2   20   20
 -0.0139348861881184    2    2   21   14
 0.7684575595933882    2    2   21   21
 0.0009959943002586606    2    2   22    3
 -0.004308231902940064    2    2   22   10
 -0.009085611169647997    2    2   22   17
 0.7684323365592964    2    2   22   22
 -0.0009207924733947788    2    2   23    1
 0.004297093868111211    2    2   23    2
 0.004104968782270974    2    2   23    5
 -0.01082709234950646    2    2   23    6
 0.002382486576568955    2    2   23    8
 -0.02256839750790983    2    2   23   11
 0.02528238913885179    2    2   23   13
 -0.003920797501119473    2    2   23   16
 0.04193921587816204    2    2   23   19
 -0.00153916461826443    2    2   23   20
 0.7621835960926995    2    2   23   23
 -0.004705218215252486    2    2   24    4
 0.01617492772405763    2    2   24    7
 -0.00267360356590334    2    2   24    9
 0.03577645089961554    2    2   24   12
 0.01960207424623767    2    2   24   15
 0.0632535068806435    2    2   24   18
 0.7563363674041399    2    2   24   24
 0.03353863759794571    3    1    3    1
 0.0354959629456566    3    1    3    2
 0.003587700800301284    3    1    5    3
 -0.00477383933755781    3    1    6    3
 0.001385851773030001    3    1    8    3
 -0.03681197262421443    3    1   10    1
 -0.01999432471985435    3    1   10    2
 -0.003179043826295475    3    1   10    5
 0.003857873620935567    3    1   10    6
 -0.002273574258225987    3    1   10    8
 -0.005062734917123476    3    1   11    3
 0.005447829804514281    3    1   11   10
 0.01448865361423647    3    1   13    3
 -0.01732370533681835    3    1   13   10
 -0.001048674797907111    3    1   14    4
 6.189152294438234e-05    3    1   14    7
 0.0001073420142536025    3    1   14    9
 -5.493534522007554e-05    3    1   14   12
 6.893016354413134e-05    3    1   15   14
 0.00462231289451944    3    1   16    3
 -0.005994925766373813    3    1   16   10
 0.01288256288776477    3    1   17    1
 0.006370241020634892    3    1   17    2
 0.0001414934644880445    3    1   17    5
 -0.0009872422308461754    3    1   17    6
 0.0009694341090610899    3    1   17    8
 -0.001885046262263901    3    1   17   11
 0.005843170071307037    3    1   17   13
 0.002092370630231635    3    1   17   16
 0.0003429564193204498    3    1   18   14
 -0.008737058341721476    3    1   19    3
 0.01474274368553458    3    1   19   10
 -0.005613621048405977    3    1   19   17
 -0.008306073382209508    3    1   20    3
 0.00402702990497926    3    1   20   10
 -0.001194728843363373    3    1   20   17
 0.01669378774487399    3    1   21    4
 0.01684672505765438    3    1   21    7
 0.001558583625440541    3    1   21    9
 0.01321941292254655    3    1   21   12
 0.0005922681230055175    3    1   21   15
 -0.005947464632728792    3    1   21   18
 0.0002527725985024038    3    1   22    1
 0.0003127037340078925    3    1   22    2
 0.01859006802202134    3    1   22    5
 0.01487177291630647    3    1   22    6
 0.001546671619903044    3    1   22    8
 0.01257748628765257    3    1   22   11
 0.005126920238768335    3    1   22   13
 0.003790019154442574    3    1   22   16
 0.002828187331555528    3    1   22   19
 3.05471989791335e-05    3    1   22   20
 0.02764021687251419    3    1   23    3
 -0.01497643864643845    3    1   23   10
 0.004635339899519834    3    1   23   17
 -0.0001503252394521464    3    1   23   22
 -4.797506032920264e-05    3    1   24   14
 0.0006292261362122962    3    1   24   21
 0.0354959629456566    3    2    3    1
 0.1546530880671558    3    2    3    2
 0.01261171065606313    3    2    5    3
 -0.01732087618437311    3    2    6    3
 0.001214046991801799    3    2    8    3
 -0.03552682050211479    3    2   10    1
 -0.04372211042514378    3    2   10    2
 -0.01302245299007847    3    2   10    5
 0.01562366326482058    3    2   10    6
 -0.01282057513559415    3    2   10    8
 -0.01140388068482387    3    2   11    3
 0.02152324773270294    3    2   11   10
 0.02668246057666923    3    2   13    3
 -0.06958971096706808    3    2   13   10
 -0.009105014051812327    3    2   14    4
 0.003399471724814127    3    2   14    7
 0.001513025433837387    3    2   14    9
 0.001906582908647393    3    2   14   12
 0.0008635972756050002    3    2   15   14
 0.006496290693803119    3    2   16    3
 -0.02435172202959953    3    2   16   10
 0.01229011121593541    3    2   17    1
 0.01184269106700618    3    2   17    2
 -0.003721630775903408    3    2   17    5
 -5.61163730787714e-05    3    2   17    6
 0.00681794044075307    3    2   17    8
 -0.005868869482917391    3    2   17   11
 0.02383867969299752    3    2   17   13
 0.009373721966861084    3    2   17   16
 0.002429477016176809    3    2   18   14
 0.003230741933292796    3    2   19    3
 0.06279044209056925    3    2   19   10
 -0.02693776068896402    3    2   19   17
 -0.04031122566399693    3    2   20    3
 0.00959314949465428    3    2   20   10
 -0.001862136486309272    3    2   20   17
 0.0813565485961706    3    2   21    4
 0.08044086782848864    3    2   21    7
 0.006064233200893258    3    2   21    9
 0.0389697605199017    3    2   21   12
 0.002256882694825448    3    2   21   15
 -0.006873552263988549    3    2   21   18
 0.0002315985097206021    3    2   22    1
 0.001109534929336105    3    2   22    2
 0.08980893970856994    3    2   22    5
 0.07096611351162799    3    2   22    6
 0.005976573977749462    3    2   22    8
 0.03607106659653277    3    2   22   11
 0.01120617582709147    3    2   22   13
 0.008221913290894516    3    2   22   16
 0.001910782527443566    3    2   22   19
 0.0004250427844634575    3    2   22   20
 0.1271560098548109    3    2   23    3
 -0.03962317196010195    3    2   23   10
 0.01014718727304767    3    2   23   17
 0.0006290781645672694    3    2   23   22
 -0.000498079765413882    3    2   24   14
 -6.723513428577728e-05    3    2   24   21
 1.084001733583368    3    3    1    1
 -0.01345551856076358    3    3    2    1
 0.7623377647515822    3    3    2    2
 0.7988513578174522    3    3    3    3
 0.4879910563894838    3    3    4    4
 -0.001449797722148065    3    3    5    1
 0.04194397439980223    3    3    5    2
 0.5382722723571726    3    3    5    5
 0.001650646814066356    3    3    6    1
 -0.05552918254828457    3    3    6    2
 0.2092416484479087    3    3    6    5
 0.4208613067636571    3    3    6    6
 0.2221226844387264    3    3    7    4
 0.4534066720395979    3    3    7    7
 -0.0008942010597588444    3    3    8    1
 0.01828241512216263    3    3    8    2
 0.01180822930201497    3    3    8    5
 0.02901951988970828    3    3    8    6
 0.2429911120321406    3    3    8    8
 0.002595576895967784    3    3    9    4
 0.04140776615715294    3    3    9    7
 0.2311039752102368    3    3    9    9
 -0.2064762368700027    3    3   10    3
 0.6119370750916835    3    3   10   10
 0.002155540311695597    3    3   11    1
 -0.03832830892374469    3    3   11    2
 0.1084047824453069    3    3   11    5
 0.1445416577538785    3    3   11    6
 0.01523908013557055    3    3   11    8
 0.5242654074096651    3    3   11   11
 0.1008367432410141    3    3   12    4
 0.1578824453588281    3    3   12    7
 0.02165787492026688    3    3   12    9
 0.5211246331628538    3    3   12   12
 -0.00741125135844071    3    3   13    1
 0.120162869135658    3    3   13    2
 0.08632444049597662    3    3   13    5
 -0.004702079953536157    3    3   13    6
 0.0285870279089026    3    3   13    8
 0.06216828311658749    3    3   13   11
 0.4930396402109399    3    3   13   13
 0.2588964273591106    3    3   14   14
 -0.001076204412563797    3    3   15    4
 0.01203008864185665    3    3   15    7
 0.005121682781839388    3    3   15    9
 0.01134776377739876    3    3   15   12
 0.2591610496757216    3    3   15   15
 -0.002671858234260076    3    3   16    1
 0.03965360564100526    3    3   16    2
 0.04354525291426888    3    3   16    5
 0.02271375884927021    3    3   16    6
 0.01647593739475391    3    3   16    8
 0.06948791744629962    3    3   16   11
 0.1036502733648965    3    3   16   13
 0.311222487409377    3    3   16   16
 0.05917634019777888    3    3   17    3
 -0.1239884398213118    3    3   17   10
 0.3024859492726459    3    3   17   17
 -0.06208592733050565    3    3   18    4
 -0.04436342838325967    3    3   18    7
 0.01032728081709993    3    3   18    9
 -0.1615291073109155    3    3   18   12
 0.0001493542170250828    3    3   18   15
 0.3968639112704713    3    3   18   18
 0.007476935752268011    3    3   19    1
 -0.08316934516889947    3    3   19    2
 0.01767806675340089    3    3   19    5
 0.03827853516383263    3    3   19    6
 -0.03597941591073196    3    3   19    8
 0.1295492204199302    3    3   19   11
 -0.1127026269732378    3    3   19   13
 -0.02820124382793643    3    3   19   16
 0.464417569818756    3    3   19   19
 -0.001967804920008421    3    3   20    1
 -0.01729318209434628    3    3   20    2
 -0.001507729563752733    3    3   20    5
 -3.671265788740954e-06    3    3   20    6
 0.0001405325636323018    3    3   20    8
 -0.0004346816623141317    3    3   20   11
 0.006314190275517193    3    3   20   13
 -0.0129721748000781    3    3   20   16
 0.006069937205057611    3    3   20   19
 0.7104163285526899    3    3   20   20
 -0.01395047696858987    3    3   21   14
 0.7662443278118194    3    3   21   21
 -0.0005864661319346771    3    3   22    3
 -0.003735463830680444    3    3   22   10
 -0.009256658105789448    3    3   22   17
 0.7664188191572224    3    3   22   22
 0.005213479770673073    3    3   23    1
 0.06266345510409564    3    3   23    2
 0.009637880528600495    3    3   23    5
 -0.01752652091464177    3    3   23    6
 0.004332098535939667    3    3   23    8
 -0.02589774418231871    3    3   23   11
 0.03456443855850301    3    3   23   13
 -0.0007854796308427101    3    3   23   16
 0.0400240404020595    3    3   23   19
 -0.02533235309991398    3    3   23   20
 0.7730211915619432    3    3   23   23
 -0.004721243907319744    3    3   24    4
 0.01373610694031967    3    3   24    7
 -0.002700238640797108    3    3   24    9
 0.03262957652342278    3    3   24   12
 0.01736516604982831    3    3   24   15
 0.05496873869499353    3    3   24   18
 0.6925571219790483    3    3   24   24
 0.01359311888005699    4    1    4    1
 0.01568258443229071    4    1    4    2
 -9.394237762243113e-06    4    1    5    4
 -0.0008002937731536548    4    1    6    4
 0.01420451527752106    4    1    7    1
 0.01531647692841509    4    1    7    2
 0.002399281843514121    4    1    7    5
 -0.002633000233165277    4    1    7    6
 0.001128578224047147    4    1    8    4
 0.0003991412903835243    4    1    8    7
 0.002195471135936872    4    1    9    1
 0.001428414376584469    4    1    9    2
 0.0006065830291595    4    1    9    5
 -0.000476173260390745    4    1    9    6
 -0.001600416933651751    4    1    9    8
 -0.00146636664869248    4    1   11    4
 -0.00188372729499474    4    1   11    7
 -0.0003529786920282941    4    1   11    9
 0.02203334825630854    4    1   12    1
 0.01308769310090554    4    1   12    2
 0.002366167910443015    4    1   12    5
 -0.002262761364262407    4    1   12    6
 0.00139246957699874    4    1   12    8
 -0.003645882937970324    4    1   12   11
 0.004363350531513186    4    1   13    4
 0.005530030092689415    4    1   13    7
 0.001182134415141878    4    1   13    9
 0.01092960428639418    4    1   13   12
 -0.000533156934067    4    1   14    3
 -0.000694951121116812    4    1   14   10
 0.0007270369932437874    4    1   15    1
 0.0005172333726947283    4    1   15    2
 0.0005698539497999311    4    1   15    5
 0.0004703288510654521    4    1   15    6
 0.0001335855250661738    4    1   15    8
 -0.0007183211190983664    4    1   15   11
 1.026113599562081e-05    4    1   15   13
 0.00237093749984817    4    1   16    4
 0.002174792542309873    4    1   16    7
 0.0003831481236186572    4    1   16    9
 0.003317761803883545    4    1   16   12
 0.002105219036723339    4    1   16   15
 -0.002091279596861583    4    1   17   14
 -0.01488983847244189    4    1   18    1
 -0.006892833161076231    4    1   18    2
 0.001447140830378576    4    1   18    5
 0.002666140357343932    4    1   18    6
 -0.001148133221599787    4    1   18    8
 0.001940549560420196    4    1   18   11
 -0.005174652019098761    4    1   18   13
 -0.00269510062145528    4    1   18   16
 -0.006374480306050694    4    1   19    4
 -0.0063020699268362    4    1   19    7
 -0.0005335628903585141    4    1   19    9
 -0.009122315217084148    4    1   19   12
 0.0001440045658070128    4    1   19   15
 0.008025156136909696    4    1   19   18
 -0.008259902395830047    4    1   20    4
 -0.008333240927125236    4    1   20    7
 -0.0007612045004750337    4    1   20    9
 -0.006467463547041158    4    1   20   12
 -0.0002779857239319884    4    1   20   15
 0.002848803769304927    4    1   20   18
 0.01577817106555901    4    1   21    3
 -0.008064725382283727    4    1   21   10
 0.002424671533949357    4    1   21   17
 -1.215330665300709e-05    4    1   22   14
 2.722597844657146e-05    4    1   22   21
 -0.008674563617445794    4    1   23    4
 -0.008762446232910127    4    1   23    7
 -0.0007858252097516658    4    1   23    9
 -0.006634164948521972    4    1   23   12
 -0.0003185576443792384    4    1   23   15
 0.002736860509774963    4    1   23   18
 0.001957011549779975    4    1   24    1
 0.000817509606874307    4    1   24    2
 0.01179409746470372    4    1   24    5
 0.009277046285065305    4    1   24    6
 0.001057772428696892    4    1   24    8
 0.00796085654889552    4    1   24   11
 0.003964525545281762    4    1   24   13
 0.002747436127423154    4    1   24   16
 0.001028056460158061    4    1   24   19
 -0.0002814985338496951    4    1   24   20
 -0.0004557545686108497    4    1   24   23
 0.01568258443229071    4    2    4    1
 0.08342834672709636    4    2    4    2
 -0.01754606684462715    4    2    5    4
 0.01398360797709251    4    2    6    4
 0.01631633215263448    4    2    7    1
 0.07299271857129642    4    2    7    2
 0.02230976503129382    4    2    7    5
 -0.02602752676695763    4    2    7    6
 0.01054414829044008    4    2    8    4
 -0.007745494664298133    4    2    8    7
 0.002296481645051471    4    2    9    1
 0.004266081778325877    4    2    9    2
 0.009124153297109791    4    2    9    5
 -0.008624117310010703    4    2    9    6
 -0.03395564931830327    4    2    9    8
 0.003315997339733218    4    2   11    4
 -0.003036414125997543    4    2   11    7
 -0.003467458015296043    4    2   11    9
 0.02314221852178651    4    2   12    1
 0.03279006671162907    4    2   12    2
 0.01459136431339178    4    2   12    5
 -0.0109422748608569    4    2   12    6
 0.008192523714504431    4    2   12    8
 -0.02828855167573089    4    2   12   11
 -0.006087219495911326    4    2   13    4
 0.00627123670714252    4    2   13    7
 0.00858526530429366    4    2   13    9
 0.0632349505269533    4    2   13   12
 -0.004537173352193887    4    2   14    3
 -0.01659260674663481    4    2   14   10
 0.0007886338415399031    4    2   15    1
 0.001172821692220321    4    2   15    2
 0.004352323718043105    4    2   15    5
 0.005116780250758107    4    2   15    6
 0.001457411465113275    4    2   15    8
 -0.01666420835183539    4    2   15   11
 -0.006852336254752332    4    2   15   13
 0.007009795541125267    4    2   16    4
 0.002409783637215353    4    2   16    7
 0.002159234744162081    4    2   16    9
 0.006890616347167532    4    2   16   12
 0.039018338419691    4    2   16   15
 -0.04116723207947513    4    2   17   14
 -0.01514835514559013    4    2   18    1
 -0.01179600649448469    4    2   18    2
 0.01570057705410886    4    2   18    5
 0.01195044734360523    4    2   18    6
 -0.01106417040405007    4    2   18    8
 -0.007534218046926975    4    2   18   11
 -0.01293071891471687    4    2   18   13
 -0.02107354864970528    4    2   18   16
 -0.01601766361858817    4    2   19    4
 -0.01099405077000728    4    2   19    7
 0.002881800958048069    4    2   19    9
 -0.02357442223926169    4    2   19   12
 0.008028457874278798    4    2   19   15
 0.05254824445674778    4    2   19   18
 -0.04579522878238175    4    2   20    4
 -0.04552096178562145    4    2   20    7
 -0.003441148391583826    4    2   20    9
 -0.02092929892556366    4    2   20   12
 -0.0006216617278551449    4    2   20   15
 0.001524632343145218    4    2   20   18
 0.0843075100126592    4    2   21    3
 -0.02127221083756201    4    2   21   10
 0.003753522891713826    4    2   21   17
 -0.0005118406279847395    4    2   22   14
 -0.001368365896352311    4    2   22   21
 -0.04876622083258331    4    2   23    4
 -0.04946631616055487    4    2   23    7
 -0.004129722022800274    4    2   23    9
 -0.02268869332750814    4    2   23   12
 -0.001761745023895314    4    2   23   15
 -0.001022988357336879    4    2   23   18
 0.001825764569171167    4    2   24    1
 -0.001263244701064418    4    2   24    2
 0.06261798009525409    4    2   24    5
 0.05110168289079822    4    2   24    6
 0.005298133845348851    4    2   24    8
 0.02717522328515096    4    2   24   11
 0.009214953355595468    4    2   24   13
 0.00752492592185874    4    2   24   16
 -0.00593410409228139    4    2   24   19
 0.0001793162080262795    4    2   24   20
 0.002712084765101506    4    2   24   23
 0.0202820755401362    4    3    4    3
 0.018911597665415    4    3    7    3