 &FCI NORB=  24,NELEC=10,MS2=0,
  ORBSYM=1,1,1,1,1,1,1,1,1,1,1,1,1,1,1,1,1,1,1,1,1,1,1,1,
  ISYM=1,
 &END
 4.741994968138513    1    1    1    1
 -0.4570913196462265    1    1    2    1
 1.087588109892261    1    1    2    2
 0.7273341862669639    1    1    3    3
 1.063837334542634    1    1    4    4
 -0.09010602351238595    1    1    5    1
 0.1148641759670034    1    1    5    2
 0.8320250524301117    1    1    5    5
 0.1180238592840137    1    1    6    1
 -0.1742017594965283    1    1    6    2
 0.2883264718147578    1    1    6    5
 0.5427482531723733    1    1    6    6
 -0.3466262704872086    1    1    7    3
 0.5792214817736447    1    1    7    7
 0.02905445530874408    1    1    8    1
 -0.03470387830600381    1    1    8    2
 0.09992535760179284    1    1    8    5
 0.1378688571557575    1    1    8    6
 0.3486792690008766    1    1    8    8
 -0.1018084261602259    1    1    9    3
 0.1710847577922106    1    1    9    7
 0.3512241854513854    1    1    9    9
 -0.4785409420783884    1    1   10    4
 0.8787353214242209    1    1   10   10
 0.0989564869194451    1    1   11    1
 -0.09890706828278586    1    1   11    2
 -0.3716147271507983    1    1   11    5
 -0.2058441558415199    1    1   11    6
 -0.1077270088216556    1    1   11    8
 0.837587382920421    1    1   11   11
 -0.2876531518380973    1    1   12    3
 0.2883337955852553    1    1   12    7
 0.1122745239739698    1    1   12    9
 0.7817598460250442    1    1   12   12
 0.357162001535653    1    1   13   13
 -0.3329837083286531    1    1   14    1
 0.3395395504812494    1    1   14    2
 0.01756630434925738    1    1   14    5
 -0.1943026445998227    1    1   14    6
 -0.0671217057684317    1    1   14    8
 -0.008100911248187664    1    1   14   11
 0.7127416569129406    1    1   14   14
 0.01261496994885804    1    1   15    1
 -0.01142889458960531    1    1   15    2
 -0.1859990831713476    1    1   15    5
 -0.1438482991871687    1    1   15    6
 -0.0924646723697321    1    1   15    8
 0.2690360107715718    1    1   15   11
 0.04557239262734634    1    1   15   14
 0.5277536803454543    1    1   15   15
 0.1764443410337808    1    1   16    3
 -0.2105152085533511    1    1   16    7
 -0.1194808678251343    1    1   16    9
 -0.286795569086398    1    1   16   12
 0.5606030065727473    1    1   16   16
 0.1805886522259116    1    1   17    4
 -0.2259025704223039    1    1   17   10
 0.4488610213562408    1    1   17   17
 -0.07019986116344945    1    1   18    3
 0.02285784478739062    1    1   18    7
 -0.03738723936826741    1    1   18    9
 0.122934633834482    1    1   18   12
 -0.034646875709265    1    1   18   16
 0.4532131403519317    1    1   18   18
 0.2315908033788064    1    1   19    1
 -0.2240913619926147    1    1   19    2
 0.0002325114120050945    1    1   19    5
 0.08634377496706512    1    1   19    6
 -0.02559768012896886    1    1   19    8
 -0.01808184424201046    1    1   19   11
 -0.2394528268057289    1    1   19   14
 -0.008619671242172586    1    1   19   15
 0.6466334843873283    1    1   19   19
 0.0101442889019967    1    1   20    4
 -0.03383639637115184    1    1   20   10
 -0.0590843887125706    1    1   20   17
 0.9189205180417267    1    1   20   20
 -0.08562842070668411    1    1   21   13
 0.9140859184300931    1    1   21   21
 0.005894592098675314    1    1   22    1
 -0.005248654107228259    1    1   22    2
 0.009373663611813424    1    1   22    5
 0.008623617405717408    1    1   22    6
 0.0003327526713384888    1    1   22    8
 -0.05079829726987679    1    1   22   11
 -0.03342460641062024    1    1   22   14
 0.06602002975054881    1    1   22   15
 -0.02724464546707772    1    1   22   19
 0.9122558338494433    1    1   22   22
 -0.07242510909087853    1    1   23    1
 0.06012406339125245    1    1   23    2
 0.007892530140130073    1    1   23    5
 -0.03551109378559653    1    1   23    6
 -0.0208792156512639    1    1   23    8
 -0.03507206855816712    1    1   23   11
 0.1133106283700881    1    1   23   14
 0.06762384870584494    1    1   23   15
 0.1305491009716543    1    1   23   19
 0.002027506479750431    1    1   23   22
 0.8581792236818286    1    1   23   23
 0.007636484205511819    1    1   24    3
 -0.03237240819487768    1    1   24    7
 -0.0334605688953568    1    1   24    9
 0.009953062616300775    1    1   24   12
 0.1011492677580844    1    1   24   16
 0.1644618037493678    1    1   24   18
 0.858048371669611    1    1   24   24
 -0.4570913196462266    2    1    1    1
 0.0712904665749388    2    1    2    1
 -0.01856578342534636    2    1    2    2
 -0.005896605555756993    2    1    3    3
 -0.01261459252051025    2    1    4    4
 0.01373036062740582    2    1    5    1
 -0.004180290910160729    2    1    5    2
 -0.008483794926332895    2    1    5    5
 -0.0189158667022124    2    1    6    1
 0.004613279155545769    2    1    6    2
 -0.004224286408869198    2    1    6    5
 -0.004690030521972598    2    1    6    6
 0.005586591158899003    2    1    7    3
 -0.005150250331248292    2    1    7    7
 -0.004650995212432071    2    1    8    1
 0.001090845814238942    2    1    8    2
 -0.002467299753560604    2    1    8    5
 -0.002086583809957363    2    1    8    6
 -0.0009432983674015108    2    1    8    8
 0.002754109439650065    2    1    9    3
 -0.002513348174501345    2    1    9    7
 -0.00116752463797854    2    1    9    9
 0.01380271793163368    2    1   10    4
 -0.01523918443304358    2    1   10   10
 -0.01499551506020288    2    1   11    1
 0.0042953100058122    2    1   11    2
 0.01091912597888672    2    1   11    5
 0.005693838265597832    2    1   11    6
 0.003294719498269156    2    1   11    8
 -0.01428606273107091    2    1   11   11
 0.008544756748691169    2    1   12    3
 -0.007981500290252325    2    1   12    7
 -0.003896942491421093    2    1   12    9
 -0.01257979192525237    2    1   12   12
 7.449283809313469e-05    2    1   13   13
 0.05240535971529388    2    1   14    1
 -0.01377233469628915    2    1   14    2
 -0.0008483337929976364    2    1   14    5
 0.00489600970116164    2    1   14    6
 0.001541359032584864    2    1   14    8
 0.0006703326181494592    2    1   14   11
 -0.01082320221902683    2    1   14   14
 -0.001581408585447559    2    1   15    1
 0.0005990998090841651    2    1   15    2
 0.006119761440783129    2    1   15    5
 0.00394658880474396    2    1   15    6
 0.002119474522414961    2    1   15    8
 -0.008252016517980052    2    1   15   11
 -0.001067142047225072    2    1   15   14
 -0.004915846122823124    2    1   15   15
 -0.005997809236086589    2    1   16    3
 0.005554727892300263    2    1   16    7
 0.002695740496621107    2    1   16    9
 0.008737116624655405    2    1   16   12
 -0.005941394281860928    2    1   16   16
 -0.00598760313774463    2    1   17    4
 0.006746880407576715    2    1   17   10
 -0.002907146058564266    2    1   17   17
 0.002006807161830551    2    1   18    3
 -0.001862883313203655    2    1   18    7
 -0.0009158349285782203    2    1   18    9
 -0.003225616170220392    2    1   18   12
 0.002146391456784207    2    1   18   16
 -0.0009178190586812149    2    1   18   18
 -0.03618836628840252    2    1   19    1
 0.00955121908758568    2    1   19    2
 0.0003212034556083105    2    1   19    5
 -0.003590313098089994    2    1   19    6
 -0.001200269770138806    2    1   19    8
 5.734504848460356e-06    2    1   19   11
 0.007712487739372063    2    1   19   14
 0.0009789391293645927    2    1   19   15
 -0.005667067774852984    2    1   19   19
 -0.001005811315755845    2    1   20    4
 0.0008660047059738354    2    1   20   10
 -0.0001385930281518501    2    1   20   17
 -0.001971732328005784    2    1   20   20
 0.0002301428407927631    2    1   21   13
 -0.001924048755247248    2    1   21   21
 -0.0009331121034142052    2    1   22    1
 0.0002369902497788155    2    1   22    2
 -0.0009355883501664848    2    1   22    5
 -0.000722421870534002    2    1   22    6
 -0.0003206376466615254    2    1   22    8
 0.001000076365209285    2    1   22   11
 0.0004570669144253465    2    1   22   14
 0.0003443071336150667    2    1   22   15
 -0.0001181079856089727    2    1   22   19
 -0.001982404185727071    2    1   22   22
 0.01120220036181927    2    1   23    1
 -0.002947378406590746    2    1   23    2
 2.102469304040689e-05    2    1   23    5
 0.00124060901122738    2    1   23    6
 0.0005244491470624772    2    1   23    8
 -7.615409398476861e-05    2    1   23   11
 -0.002531631268492332    2    1   23   14
 -0.0005889267002278567    2    1   23   15
 0.001148727822612211    2    1   23   19
 5.038139296751489e-05    2    1   23   22
 -0.002368968730874588    2    1   23   23
 -0.001414207234445679    2    1   24    3
 0.001398827999837187    2    1   24    7
 0.0007632392731948505    2    1   24    9
 0.001786089960788347    2    1   24   12
 -0.001528365148939413    2    1   24   16
 -8.243935871940889e-05    2    1   24   18
 -0.002151562727661365    2    1   24   24
 1.087588109892261    2    2    1    1
 -0.01856578342534632    2    2    2    1
 0.7559992031464657    2    2    2    2
 0.5714143551594424    2    2    3    3
 0.7390733757700827    2    2    4    4
 -0.004961326380316499    2    2    5    1
 0.04599328401392862    2    2    5    2
 0.6193795694430436    2    2    5    5
 0.003568672137050986    2    2    6    1
 -0.09298055994459127    2    2    6    2
 0.1663398381350994    2    2    6    5
 0.4338428606534992    2    2    6    6
 -0.1988776289972608    2    2    7    3
 0.4492961904870704    2    2    7    7
 0.0006544108205149861    2    2    8    1
 -0.01368251178288662    2    2    8    2
 0.03830337562692671    2    2    8    5
 0.09154113556349353    2    2    8    6
 0.3318390271303189    2    2    8    8
 -0.03407582395471916    2    2    9    3
 0.1125681610637241    2    2    9    7
 0.3287362039491284    2    2    9    9
 -0.1881854225918129    2    2   10    4
 0.5829040211885238    2    2   10   10
 0.005417262766073708    2    2   11    1
 -0.03585288468206375    2    2   11    2
 -0.1470915175385133    2    2   11    5
 -0.08068674550647392    2    2   11    6
 -0.03986388214267302    2    2   11    8
 0.5653403785369091    2    2   11   11
 -0.1084144241129648    2    2   12    3
 0.1213583013664331    2    2   12    7
 0.03516881104090824    2    2   12    9
 0.5408703446716341    2    2   12   12
 0.361275106917938    2    2   13   13
 -0.01216354122213219    2    2   14    1
 0.1203197212735513    2    2   14    2
 0.0212401488229744    2    2   14    5
 -0.1034262699673567    2    2   14    6
 -0.03649145080526442    2    2   14    8
 -0.006409951488360264    2    2   14   11
 0.532571932062461    2    2   14   14
 0.001434626682615323    2    2   15    1
 -0.005152942845802626    2    2   15    2
 -0.06267626209851765    2    2   15    5
 -0.06084953676817123    2    2   15    6
 -0.04824450121195716    2    2   15    8
 0.1104646174203795    2    2   15   11
 0.0226262161407886    2    2   15   14
 0.4338064791196644    2    2   15   15
 0.05136183061890327    2    2   16    3
 -0.09289355183968384    2    2   16    7
 -0.06382316126918629    2    2   16    9
 -0.1188128384037534    2    2   16   12
 0.4481971372082887    2    2   16   16
 0.06278153300246735    2    2   17    4
 -0.09577179597824467    2    2   17   10
 0.3968515143652216    2    2   17   17
 -0.03538338103396748    2    2   18    3
 -0.005758965367687701    2    2   18    7
 -0.04849710757020617    2    2   18    9
 0.05974709380581127    2    2   18   12
 -0.00239551387105149    2    2   18   16
 0.4248761360319321    2    2   18   18
 0.008246349090387564    2    2   19    1
 -0.07435721982343846    2    2   19    2
 0.0004456819687153357    2    2   19    5
 0.02747039449997921    2    2   19    6
 -0.04336857334737238    2    2   19    8
 -0.01207872309247837    2    2   19   11
 -0.1099009214094993    2    2   19   14
 0.003968219857343339    2    2   19   15
 0.5288588414432245    2    2   19   19
 -0.00593760009482594    2    2   20    4
 -0.01732986460802491    2    2   20   10
 -0.04532855460618643    2    2   20   17
 0.7481563041420497    2    2   20   20
 -0.06262093288414833    2    2   21   13
 0.7456269142601663    2    2   21   21
 0.0001520549830093737    2    2   22    1
 -0.001299807305215513    2    2   22    2
 -0.005699692812303135    2    2   22    5
 -0.003091707118977903    2    2   22    6
 -0.004167975872121628    2    2   22    8
 -0.02898368395327406    2    2   22   11
 -0.02063275076389084    2    2   22   14
 0.05306835287662157    2    2   22   15
 -0.01988423525211102    2    2   22   19
 0.7439695523892368    2    2   22   22
 -0.002666159433363958    2    2   23    1
 0.01383625309845717    2    2   23    2
 0.005698435989833498    2    2   23    5
 -0.0122606969932197    2    2   23    6
 -0.00439358922138418    2    2   23    8
 -0.02752989647060825    2    2   23   11
 0.06193808884382383    2    2   23   14
 0.04521557216983103    2    2   23   15
 0.1040710691933084    2    2   23   19
 0.002302192234411497    2    2   23   22
 0.6984352421159425    2    2   23   23
 -0.009026090586302899    2    2   24    3
 -0.006649534412725436    2    2   24    7
 -0.01121489120708513    2    2   24    9
 0.02531121932125492    2    2   24   12
 0.06086412763631757    2    2   24   16
 0.1209683321266207    2    2   24   18
 0.6987419292231926    2    2   24   24
 0.01514655150507183    3    1    3    1
 0.01768723252001735    3    1    3    2
 0.0006782594799618302    3    1    5    3
 -0.002012148834460373    3    1    6    3
 -0.01408801935956475    3    1    7    1
 -0.01434460564155773    3    1    7    2
 -0.003885501173476128    3    1    7    5
 0.004200941196410429    3    1    7    6
 0.001166139782021028    3    1    8    3
 0.000709583508480927    3    1    8    7
 -0.006863006631743731    3    1    9    1
 -0.005284460495301418    3    1    9    2
 -0.003192663905219692    3    1    9    5
 0.001057175462519378    3    1    9    6
 0.002671161585707908    3    1    9    8
 -3.226434499731166e-05    3    1   11    3
 0.001098441335136049    3    1   11    7
 0.001007036966405551    3    1   11    9
 -0.02224105901433893    3    1   12    1
 -0.01185447620717187    3    1   12    2
 -0.001004435344575474    3    1   12    5
 0.005105938359153344    3    1   12    6
 0.0009425310229881125    3    1   12    8
 0.004046505066057371    3    1   12   11
 -0.002796540165175722    3    1   13    4
 -0.001085553279186905    3    1   13   10
 0.006048109502370281    3    1   14    3
 -0.006310223617724843    3    1   14    7
 -0.003681231437502771    3    1   14    9
 -0.0108026666949509    3    1   14   12
 -0.00304217541720081    3    1   15    3
 0.001921697672146895    3    1   15    7
 0.0008561127818267188    3    1   15    9
 -0.0006913757160378733    3    1   15   12
 0.0153061236498036    3    1   16    1
 0.00796167354235636    3    1   16    2
 0.003738006870692474    3    1   16    5
 -0.001151737851736179    3    1   16    6
 0.0003322073571231878    3    1   16    8
 -0.001793069859254615    3    1   16   11
 0.009587927833500275    3    1   16   14
 -0.002273561422619326    3    1   16   15
 -0.003539036842434604    3    1   17   13
 -0.005671506851567043    3    1   18    1
 -0.001714673673556951    3    1   18    2
 0.004949824903311281    3    1   18    5
 0.003282644110123003    3    1   18    6
 2.369130785411537e-06    3    1   18    8
 -0.002216322381651572    3    1   18   11
 -0.001425718367906632    3    1   18   14
 0.001972391145301316    3    1   18   15
 -0.009251633470238727    3    1   19    3
 0.007857808077246422    3    1   19    7
 0.00259664911717519    3    1   19    9
 0.01038786269995435    3    1   19   12
 -0.005240396692619221    3    1   19   16
 0.003999296792685957    3    1   19   18
 -8.05725055642233e-05    3    1   20   13
 0.0162823314836844    3    1   21    4
 -0.008957249614624314    3    1   21   10
 0.002734904296671747    3    1   21   17
 0.0002139848839803452    3    1   21   20
 -0.007005218617544807    3    1   22    3
 0.006261753683036607    3    1   22    7
 0.002472131236697627    3    1   22    9
 0.004721690003440006    3    1   22   12
 -0.003277658870370586    3    1   22   16
 -2.910031849473059e-05    3    1   22   18
 -0.009224078957988852    3    1   23    3
 0.008582173482065055    3    1   23    7
 0.003643465013658312    3    1   23    9
 0.005161110220919889    3    1   23   12
 -0.004227378595512682    3    1   23   16
 -0.001013493273729269    3    1   23   18
 0.002931840157804172    3    1   24    1
 0.0001885695754071509    3    1   24    2
 0.01206546542664943    3    1   24    5
 0.008064083265808743    3    1   24    6
 0.003674567275916047    3    1   24    8
 -0.009043989274724738    3    1   24   11
 -0.001558958081362381    3    1   24   14
 -0.004985490040701918    3    1   24   15
 -0.0004850664701642152    3    1   24   19
 0.0004249654984830085    3    1   24   22
 -0.0002372879959123966    3    1   24   23
 0.01768723252001735    3    2    3    1
 0.1047238745651955    3    2    3    2
 -0.02443530778230637    3    2    5    3
 0.01737832924562697    3    2    6    3
 -0.01630913432087528    3    2    7    1
 -0.06496669990518716    3    2    7    2
 -0.03397939093118151    3    2    7    5
 0.04220982064284048    3    2    7    6
 0.03060386182199652    3    2    8    3
 0.01375924149301721    3    2    8    7
 -0.007584603014279913    3    2    9    1
 -0.01463801849658113    3    2    9    2
 -0.03428794950917655    3    2    9    5
 0.01265245327021223    3    2    9    6
 0.05784989297659934    3    2    9    8
 0.01629217594732728    3    2   11    3
 -0.004124399900769231    3    2   11    7
 0.0002027811276355603    3    2   11    9
 -0.02328638475795259    3    2   12    1
 -0.02685029717024977    3    2   12    2
 0.003503627926252032    3    2   12    5
 0.02996143235561916    3    2   12    6
 0.006211907783111924    3    2   12    8
 0.0461402022632089    3    2   12   11
 -0.02419356278659475    3    2   13    4
 -0.03850908500501497    3    2   13   10
 -0.004554043147627131    3    2   14    3
 -0.00282710078352225    3    2   14    7
 -0.01779064636160627    3    2   14    9
 -0.04217205677027602    3    2   14   12
 -0.02593013141923348    3    2   15    3
 0.01220457168361258    3    2   15    7
 0.00561355027614183    3    2   15    9
 -0.03579009966529564    3    2   15   12
 0.01601719690000254    3    2   16    1
 0.01284334526052244    3    2   16    2
 0.0227764255722207    3    2   16    5
 0.004421111047526107    3    2   16    6
 0.009527837773400981    3    2   16    8
 0.01000823362347197    3    2   16   11
 0.07712755718595811    3    2   16   14
 -0.02171863494953307    3    2   16   15
 -0.06733376894970597    3    2   17   13
 -0.005450310358695878    3    2   18    1
 -0.006450719697833306    3    2   18    2
 0.04035906848292253    3    2   18    5
 0.02038526321939807    3    2   18    6
 -0.009893486352901854    3    2   18    8
 -0.0187009131774736    3    2   18   11
 0.01207244406640863    3    2   18   14
 0.05135811599166084    3    2   18   15
 -0.03876335557735072    3    2   19    3
 0.02631092846830829    3    2   19    7
 -0.001769803435715457    3    2   19    9
 0.04552058717729267    3    2   19   12
 0.006472748795299235    3    2   19   16
 0.03890994237703406    3    2   19   18
 -0.00509321519034036    3    2   20   13
 0.08890377586913935    3    2   21    4
 -0.02978107700165356    3    2   21   10
 -0.003123808799077411    3    2   21   17
 -0.004317765463044371    3    2   21   20
 -0.03835019841868986    3    2   22    3
 0.0339742594747758    3    2   22    7
 0.01171604654247152    3    2   22    9
 0.01737509096773286    3    2   22   12
 -0.004943689969789442    3    2   22   16
 -0.009991124789487113    3    2   22   18
 -0.05093486839397494    3    2   23    3
 0.05347982640024881    3    2   23    7
 0.02772981551635895    3    2   23    9
 0.0156483516907399    3    2   23   12
 -0.02057143171015688    3    2   23   16
 -0.02582344345368606    3    2   23   18
 0.002293129714047882    3    2   24    1
 -0.006470752805418105    3    2   24    2
 0.05655862354811927    3    2   24    5
 0.04543314143496505    3    2   24    6
 0.02539114639726426    3    2   24    8
 -0.03181967346723852    3    2   24   11
 -0.01649361352479934    3    2   24   14
 -0.02143458836628047    3    2   24   15
 -0.0162811120750049    3    2   24   19
 0.002116954607303824    3    2   24   22
 0.01440408477435608    3    2   24   23
 0.7273341862669639    3    3    1    1
 -0.005896605555756964    3    3    2    1
 0.5714143551594426    3    3    2    2
 0.5135990256171959    3    3    3    3
 0.5392244993501628    3    3    4    4
 -0.00355520883044718    3    3    5    1
 0.0007564977677707948    3    3    5    2
 0.4936549206759296    3    3    5    5
 -0.0002458478399470151    3    3    6    1
 -0.05284063253699113    3    3    6    2
 0.07200106274673845    3    3    6    5
 0.3949463388292605    3    3    6    6
 -0.1103205479446379    3    3    7    3
 0.4133828154575968    3    3    7    7
 -0.0002742720221102201    3    3    8    1
 0.00564243241061893    3    3    8    2
 -0.01040124341430435    3    3    8    5
 0.08763337093575459    3    3    8    6
 0.3634306342332876    3    3    8    8
 0.01476697394792489    3    3    9    3
 0.09961592467281015    3    3    9    7
 0.3594030082690085    3    3    9    9
 -0.09768063795255996    3    3   10    4
 0.4689874761334109    3    3   10   10
 0.004187506637032067    3    3   11    1
 -0.01316747269692449    3    3   11    2
 -0.08026069655560801    3    3   11    5
 -0.04270594780789085    3    3   11    6
 -0.01118353850501622    3    3   11    8
 0.4609415352261855    3    3   11   11
 -0.05853892769720837    3    3   12    3
 0.07509189946323268    3    3   12    7
 0.01715716697529729    3    3   12    9
 0.4819615917951648    3    3   12   12
 0.4054269888850185    3    3   13   13
 -0.003317252300170835    3    3   14    1
 0.05665453178389795    3    3   14    2
 0.02576961638261958    3    3   14    5
 -0.05225940955432538    3    3   14    6
 -0.02225855221747177    3    3   14    8
 0.008955060958542833    3    3   14   11
 0.4729862843749827    3    3   14   14
 0.001418652454846451    3    3   15    1
 -0.01498740991365245    3    3   15    2
 -0.03612830206459641    3    3   15    5
 -0.03581001753031028    3    3   15    6
 -0.03038347318543485    3    3   15    8
 0.0240778655470039    3    3   15   11
 0.0233799567953626    3    3   15   14
 0.4242337022690829    3    3   15   15
 0.02705833374009759    3    3   16    3
 -0.0463240810023836    3    3   16    7
 -0.04062051976194261    3    3   16    9
 -0.05344370927583685    3    3   16   12
 0.4444130753167915    3    3   16   16
 0.04375314594960492    3    3   17    4
 -0.02064722283255988    3    3   17   10
 0.4051428616005064    3    3   17   17
 -0.03975974790978529    3    3   18    3
 0.008228565163891418    3    3   18    7
 -0.03919881090391376    3    3   18    9
 0.01279175948292222    3    3   18   12
 0.005265926837567603    3    3   18   16
 0.4252935508474301    3    3   18   18
 0.00135878657091815    3    3   19    1
 -0.05695274746918009    3    3   19    2
 0.007516250005911562    3    3   19    5
 0.02106316445833114    3    3   19    6
 -0.03821175493847889    3    3   19    8
 -0.007340655314794114    3    3   19   11
 -0.03754183442202363    3    3   19   14
 0.00288540780779652    3    3   19   15
 0.4604359776212038    3    3   19   19
 -0.01544474065092247    3    3   20    4
 -0.004341717744683955    3    3   20   10
 -0.01637429579366428    3    3   20   17
 0.5373236980434205    3    3   20   20
 -0.02941750344181653    3    3   21   13
 0.5745731749899579    3    3   21   21
 -0.001618836209829322    3    3   22    1
 -0.01784152580982065    3    3   22    2
 -0.01636929689922982    3    3   22    5
 -0.005872468864773629    3    3   22    6
 -0.005758548083637884    3    3   22    8
 -0.01040030269710935    3    3   22   11
 -0.008198549207035971    3    3   22   14
 0.02449701987570087    3    3   22   15
 0.003278841357019092    3    3   22   19
 0.550809723877982    3    3   22   22
 -0.003452080360463393    3    3   23    1
 -0.01917328625334556    3    3   23    2
 -0.008113935450878461    3    3   23    5
 0.001937433545569109    3    3   23    6
 0.01141098556587672    3    3   23    8
 -0.01319594591287871    3    3   23   11
 0.01842701065583709    3    3   23   14
 0.02229810765932864    3    3   23   15
 0.05034772829007118    3    3   23   19
 0.02219893014295951    3    3   23   22
 0.5553052421604763    3    3   23   23
 -0.006508294090271344    3    3   24    3
 0.005891367613550751    3    3   24    7
 0.009783123209218373    3    3   24    9
 0.02109265908019417    3    3   24   12
 0.0251733887635026    3    3   24   16
 0.05735013424433621    3    3   24   18
 0.5572931143569209    3    3   24   24
 0.03207344923684283    4    1    4    1
 0.03348010421478026    4    1    4    2
 0.006119148934378346    4    1    5    4
 -0.007568784384605409    4    1    6    4
 -0.003555526525989779    4    1    8    4
 -0.03556293022216832    4    1   10    1
 -0.01920418594695101    4    1   10    2
 -0.005547632224874053    4    1   10    5
 0.006440566256611152    4    1   10    6
 0.001121355141052488    4    1   10    8
 -0.005549809678455853    4    1   11    4
 0.006008098365214297    4    1   11   10
 -0.003760182819657976    4    1   13    3
 0.001244998355406055    4    1   13    7
 0.0002426899912901823    4    1   13    9
 0.0008586507999303393    4    1   13   12
 0.01678501853565035    4    1   14    4
 -0.0191932619196871    4    1   14   10
 0.0002855013181745352    4    1   15    4
 0.0005494808205980135    4    1   15   10
 -0.0001250605885594426    4    1   16   13
 0.0157029120255288    4    1   17    1
 0.007105522044221492    4    1   17    2
 -0.001288853998464305    4    1   17    5
 -0.003051606331581007    4    1   17    6
 -4.774013433972413e-05    4    1   17    8
 -0.001536813578833376    4    1   17   11
 0.008004152877151784    4    1   17   14
 -0.0003091732983914407    4    1   17   15
 0.0003956867692187259    4    1   18   13
 0.0008581834737224845    4    1   19    4
 0.00905893577132833    4    1   19   10
 -0.005510614038391308    4    1   19   17
 0.001263752779083959    4    1   20    1
 -1.353765916930344e-05    4    1   20    2
 0.01909547212257083    4    1   20    5
 0.01258920317074905    4    1   20    6
 0.005272235241532846    4    1   20    8
 -0.01191874164141225    4    1   20   11
 -0.002920234332288385    4    1   20   14
 -0.006280485571493865    4    1   20   15
 -0.0007054681079209149    4    1   20   19
 0.01698125279611169    4    1   21    3
 -0.01523425011165601    4    1   21    7
 -0.006176590187804631    4    1   21    9
 -0.01085576756338188    4    1   21   12
 0.007911125471558101    4    1   21   16
 0.0005953908206263199    4    1   21   18
 -0.01351869920751827    4    1   22    4
 0.007538467794753351    4    1   22   10
 -0.002381233053184837    4    1   22   17
 0.0001525515497046801    4    1   22   20
 0.02432572351591486    4    1   23    4
 -0.01688432867066545    4    1   23   10
 0.005935488652199826    4    1   23   17
 0.0009845089982322133    4    1   23   20
 0.0002516045894336302    4    1   24   13
 -0.0005004627937393674    4    1   24   21
 0.03348010421478027    4    2    4    1
 0.1465960684615348    4    2    4    2
 0.02142255296467153    4    2    5    4
 -0.02644466317331947    4    2    6    4
 -0.01856073335774303    4    2    8    4
 -0.03391989144475657    4    2   10    1
 -0.04149125444660302    4    2   10    2
 -0.02223012383006448    4    2   10    5
 0.02766902263001147    4    2   10    6
 -0.00252042756288603    4    2   10    8
 -0.01370360570271702    4    2   11    4
 0.02101369584434162    4    2   11   10
 -0.02846438436762392    4    2   13    3
 0.001051403040276283    4    2   13    7
 -0.002536190151408279    4    2   13    9
 -0.001455371913655359    4    2   13   12
 0.03346933153089289    4    2   14    4
 -0.07452261602404274    4    2   14   10
 0.004464632863700971    4    2   15    4
 0.0009093216496444453    4    2   15   10
 0.006001928878696234    4    2   16   13
 0.01457379986674154    4    2   17    1
 0.01279442046447921    4    2   17    2
 -0.01680260107361123    4    2   17    5
 -0.007281366186812446    4    2   17    6
 0.009191843410324519    4    2   17    8
 -0.008734855224852877    4    2   17   11
 0.02978229395867516    4    2   17   14
 -0.006133141943190954    4    2   17   15
 0.003002498276496923    4    2   18   13
 0.04785415357303536    4    2   19    4
 0.04463519151746002    4    2   19   10
 -0.03379917961877398    4    2   19   17
 0.0009545767635961377    4    2   20    1
 -0.003793100206239131    4    2   20    2
 0.09043448914190198    4    2   20    5
 0.06034867315336891    4    2   20    6
 0.02350703542937446    4    2   20    8
 -0.0315483121815126    4    2   20   11
 -0.0111970508907198    4    2   20   14
 -0.01338226369463492    4    2   20   15
 -0.01280869467446096    4    2   20   19
 0.0810667136649289    4    2   21    3
 -0.07205630661282841    4    2   21    7
 -0.02754411295514247    4    2   21    9
 -0.0268249051434541    4    2   21   12
 0.02084088255762379    4    2   21   16
 0.01410489996101499    4    2   21   18
 -0.06251190605013844    4    2   22    4
 0.02073783438279402    4    2   22   10
 -0.002822954461938179    4    2   22   17
 -0.0009774094251195997    4    2   22   20
 0.09754926059890255    4    2   23    4
 -0.05316386943669481    4    2   23   10
 0.01622162651567093    4    2   23   17
 0.006641514484901234    4    2   23   20
 0.001364312843086685    4    2   24   13
 -0.009855099150937489    4    2   24   21
 0.02328671371460883    4    3    4    3
 -0.01729271054540199    4    3    7    4