 &FCI NORB=  28,NELEC=14,MS2=0,
  ORBSYM=1,1,1,1,1,1,1,1,1,1,1,1,1,1,1,1,1,1,1,1,1,1,1,1,1,1,1,1,
  ISYM=1,
 &END
 2.202628527554791    1    1    1    1
 -2.785644530204937e-05    1    1    2    1
 2.202693672619612    1    1    2    2
 -0.1955250060666922    1    1    3    1
 1.426694355006513e-06    1    1    3    2
 0.6262386113224813    1    1    3    3
 4.475253023246138e-06    1    1    4    1
 -0.2068417208634711    1    1    4    2
 -4.891608335989362e-06    1    1    4    3
 0.6300370754127511    1    1    4    4
 0.04011571460363795    1    1    5    1
 -2.162535059619594e-07    1    1    5    2
 0.01343458193754205    1    1    5    3
 2.069130755067686e-06    1    1    5    4
 0.5964478077385956    1    1    5    5
 0.5657826771824193    1    1    6    6
 0.5657826771824177    1    1    7    7
 -2.213092621016123e-06    1    1    8    6
 -3.907967209675024e-06    1    1    8    7
 0.5873541000651747    1    1    8    8
 -3.907967126505467e-06    1    1    9    6
 2.213092626113303e-06    1    1    9    7
 0.5873541000651744    1    1    9    9
 -1.404447044568492e-06    1    1   10    1
 0.06122782983545318    1    1   10    2
 1.530665509804729e-06    1    1   10    3
 -0.05847005318436    1    1   10    4
 4.287938913193241e-06    1    1   10    5
 0.6362199059173984    1    1   10   10
 0.1598734404587813    1    1   11    6
 0.1511509952051111    1    1   11    7
 -3.242189592310175e-06    1    1   11    8
 -9.963995977317844e-07    1    1   11    9
 0.586257447452828    1    1   11   11
 0.151150995205111    1    1   12    6
 -0.1598734404587809    1    1   12    7
 9.963994195625442e-07    1    1   12    8
 -3.242189740448583e-06    1    1   12    9
 0.5862574474528276    1    1   12   12
 -1.751142386529086e-06    1    1   13    1
 0.08383400848145035    1    1   13    2
 8.932035253287176e-07    1    1   13    3
 -0.1298276448337539    1    1   13    4
 -2.834818099545959e-06    1    1   13    5
 -0.1918407208285789    1    1   13   10
 0.5215807428532659    1    1   13   13
 0.1510643590847199    1    1   14    1
 -1.050955785700269e-06    1    1   14    2
 -0.1495953988749607    1    1   14    3
 2.60926117321412e-06    1    1   14    4
 0.146905401240302    1    1   14    5
 5.370852443568191e-07    1    1   14   10
 -3.783944576142957e-06    1    1   14   13
 0.4974771775742656    1    1   14   14
 2.734779848966224e-06    1    1   15    6
 -3.191590535236424e-07    1    1   15    7
 -0.08921079813166428    1    1   15    8
 -0.2115367402891749    1    1   15    9
 2.910929446980193e-06    1    1   15   11
 3.475280679313033e-06    1    1   15   12
 0.5530239520235027    1    1   15   15
 3.191591349793721e-07    1    1   16    6
 2.73478008178704e-06    1    1   16    7
 -0.2115367402891751    1    1   16    8
 0.08921079813166416    1    1   16    9
 3.475280622156876e-06    1    1   16   11
 -2.91092941742449e-06    1    1   16   12
 0.5530239520235015    1    1   16   16
 0.09978704283365886    1    1   17    1
 -7.976724576007881e-07    1    1   17    2
 -0.121926407127544    1    1   17    3
 1.181935837243285e-06    1    1   17    4
 -0.1616382974988155    1    1   17    5
 -3.3933620878794e-06    1    1   17   10
 2.508705332313738e-06    1    1   17   13
 -0.001430474661172074    1    1   17   14
 0.6141444989033698    1    1   17   17
 -2.960655667800251e-06    1    1   18    1
 0.1350997799308584    1    1   18    2
 2.005577420191107e-06    1    1   18    3
 -0.1361436800424309    1    1   18    4
 4.399833924422121e-07    1    1   18    5
 0.1214080220243219    1    1   18   10
 -0.006627184109892966    1    1   18   13
 -1.685017565438221e-06    1    1   18   14
 -2.919239956374747e-06    1    1   18   17
 0.5034435519040857    1    1   18   18
 0.0143380779948826    1    1   19    1
 -1.15432918232602e-07    1    1   19    2
 -0.002487802158007004    1    1   19    3
 2.584833462817779e-07    1    1   19    4
 -0.00755215234712054    1    1   19    5
 -1.606213736672808e-06    1    1   19   10
 4.294424345492077e-07    1    1   19   13
 -0.002966579960585288    1    1   19   14
 0.04203224979890748    1    1   19   17
 8.792525172038324e-07    1    1   19   18
 0.5358539853542732    1    1   19   19
 0.03094511110588288    1    1   20    6
 -0.01633119397157016    1    1   20    7
 1.208361998048663e-08    1    1   20    8
 4.070742672318615e-07    1    1   20    9
 -0.002241731742180243    1    1   20   11
 -0.006591200063915496    1    1   20   12
 6.145457989743938e-07    1    1   20   15
 -2.379496498146685e-07    1    1   20   16
 0.5202403659471382    1    1   20   20
 0.01633119397157014    1    1   21    6
 0.03094511110588253    1    1   21    7
 4.070743091430518e-07    1    1   21    8
 -1.208364558641459e-08    1    1   21    9
 -0.006591200063915474    1    1   21   11
 0.002241731742180268    1    1   21   12
 2.379496501126073e-07    1    1   21   15
 6.14545797035515e-07    1    1   21   16
 0.5202403659471373    1    1   21   21
 0.5168347904135926    1    1   22   22
 0.5168347904135941    1    1   23   23
 -3.64623614626438e-06    1    1   24   22
 1.781633174324782e-11    1    1   24   23
 0.5173531464071593    1    1   24   24
 -1.78163039876722e-11    1    1   25   22
 -3.646236146070958e-06    1    1   25   23
 0.5173531464071595    1    1   25   25
 -2.288931835355544e-07    1    1   26    6
 1.234901565044539e-07    1    1   26    7
 0.0001595313896956375    1    1   26    8
 0.007773445412636806    1    1   26    9
 -2.240801076133087e-07    1    1   26   11
 -6.79181908878326e-07    1    1   26   12
 0.002081320195836032    1    1   26   15
 -0.000827870056737904    1    1   26   16
 3.459403317813969e-06    1    1   26   20
 -3.167398236053609e-08    1    1   26   21
 0.5296697525017287    1    1   26   26
 -1.234901566829136e-07    1    1   27    6
 -2.288931921206466e-07    1    1   27    7
 0.00777344541263698    1    1   27    8
 -0.0001595313896957223    1    1   27    9
 -6.791819077561767e-07    1    1   27   11
 2.240801067875803e-07    1    1   27   12
 0.0008278700567380197    1    1   27   15
 0.002081320195835826    1    1   27   16
 3.16739828046253e-08    1    1   27   20
 3.459403317584986e-06    1    1   27   21
 0.5296697525017291    1    1   27   27
 -8.026586860891369e-07    1    1   28    1
 0.03687032842675059    1    1   28    2
 4.546773108701427e-07    1    1   28    3
 -0.03308584359225972    1    1   28    4
 6.96711926059454e-08    1    1   28    5
 0.02509550119930617    1    1   28   10
 0.02206082962688541    1    1   28   13
 -5.162359912316491e-07    1    1   28   14
 -5.667171301751428e-07    1    1   28   17
 -0.01972066768410244    1    1   28   18
 -3.317215515691307e-06    1    1   28   19
 0.5385376657300869    1    1   28   28
 -2.785644530122307e-05    2    1    1    1
 1.924892377276419    2    1    2    1
 2.785548628163072e-05    2    1    2    2
 1.42159051480453e-06    2    1    3    1
 -0.19624130980315    2    1    3    2
 -5.093176407830252e-09    2    1    3    3
 -0.2059209622512584    2    1    4    1
 -1.491297470360155e-06    2    1    4    2
 0.3380117006350975    2    1    4    3
 4.532866452275911e-09    2    1    4    4
 -2.530296459202568e-07    2    1    5    1
 0.03502450703542918    2    1    5    2
 5.230544436837141e-10    2    1    5    3
 -0.1429792626581932    2    1    5    4
 -7.207390582790463e-10    2    1    5    5
 -1.680975123430107e-09    2    1    6    6
 -1.681781357229582e-09    2    1    7    7
 0.1529202418661832    2    1    8    6
 0.2700326584848455    2    1    8    7
 1.30834923759782e-09    2    1    8    8
 0.270032658484846    2    1    9    6
 -0.1529202418661829    2    1    9    7
 1.307684663401094e-09    2    1    9    9
 0.06643004314046866    2    1   10    1
 4.804919657878146e-07    2    1   10    2
 -0.1057379590750394    2    1   10    3
 -1.004563884672766e-09    2    1   10    4
 -0.2962841427684823    2    1   10    5
 7.200912705202824e-10    2    1   10   10
 -1.716706699260169e-09    2    1   11    6
 -1.623280333718988e-09    2    1   11    7
 0.2239311945155573    2    1   11    8
 0.06881921011706603    2    1   11    9
 -5.811349457288941e-09    2    1   11   11
 -1.62293223262392e-09    2    1   12    6
 1.716838029109779e-09    2    1   12    7
 -0.06881921011706611    2    1   12    8
 0.2239311945155569    2    1   12    9
 -5.811298234828152e-09    2    1   12   12
 0.0789384200751008    2    1   13    1
 5.690916601985826e-07    2    1   13    2
 -0.06151028040068639    2    1   13    3
 2.559403756069228e-09    2    1   13    4
 0.1956893747907948    2    1   13    5
 9.05864866354144e-10    2    1   13   10
 -9.301652475113189e-09    2    1   13   13
 -1.071477212806426e-06    2    1   14    1
 0.1482413331178614    2    1   14    2
 4.918559688973033e-10    2    1   14    3
 -0.180505188385938    2    1   14    4
 3.298349839537e-09    2    1   14    5
 -0.03735253796341959    2    1   14   10
 0.2615094839366892    2    1   14   13
 8.254433028157676e-09    2    1   14   14
 -0.189082848626947    2    1   15    6
 0.02206667857168186    2    1   15    7
 -1.031209884396942e-09    2    1   15    8
 -2.445112016818186e-09    2    1   15    9
 -0.2011725880075534    2    1   15   11
 -0.2401745623814006    2    1   15   12
 6.116785381447777e-09    2    1   15   15
 -0.02206667857168184    2    1   16    6
 -0.1890828486269465    2    1   16    7
 -2.445431178735302e-09    2    1   16    8
 1.031267744499285e-09    2    1   16    9
 -0.2401745623814007    2    1   16   11
 0.2011725880075532    2    1   16   12
 6.117015769998083e-09    2    1   16   16
 -7.602490224420225e-07    2    1   17    1
 0.1049749554569373    2    1   17    2
 1.118256172638046e-09    2    1   17    3
 -0.08170168773956099    2    1   17    4
 -1.019319085518097e-11    2    1   17    5
 0.234513322315443    2    1   17   10
 -0.1733458692602277    2    1   17   13
 -4.018106819546428e-09    2    1   17   14
 -6.582949853631281e-11    2    1   17   17
 0.1370725775528143    2    1   18    1
 9.922737806350392e-07    2    1   18    2
 -0.1385565727137999    2    1   18    3
 -1.538843211494265e-09    2    1   18    4
 -0.03040106459026521    2    1   18    5
 8.272344228892059e-10    2    1   18   10
 -1.688413588628312e-09    2    1   18   13
 0.1164324268028284    2    1   18   14
 0.2017580909201646    2    1   18   17
 1.484931311593329e-09    2    1   18   18
 -1.096834485258957e-07    2    1   19    1
 0.01513606546140992    2    1   19    2
 2.74810279350321e-10    2    1   19    3
 -0.01785346306369239    2    1   19    4
 2.195220494098649e-10    2    1   19    5
 0.1109848626783262    2    1   19   10
 -0.02966940240593198    2    1   19   13
 -5.596642303241917e-10    2    1   19   14
 1.447408998211941e-10    2    1   19   17
 -0.06074309426129529    2    1   19   18
 -3.341765891784476e-10    2    1   19   19
 1.761788965041165e-10    2    1   20    6
 -9.298706845749932e-11    2    1   20    7
 -0.0008346452241510484    2    1   20    8
 -0.02811758845702241    2    1   20    9
 -5.361018822879621e-11    2    1   20   11
 -1.576443785082128e-10    2    1   20   12
 -0.04246086967577219    2    1   20   15
 0.01644067717583135    2    1   20   16
 -1.586880414398972e-09    2    1   20   20
 9.298632892319747e-11    2    1   21    6
 1.762128884648384e-10    2    1   21    7
 -0.02811758845702259    2    1   21    8
 0.0008346452241511076    2    1   21    9
 -1.576579079960727e-10    2    1   21   11
 5.362650839883798e-11    2    1   21   12
 -0.01644067717583128    2    1   21   15
 -0.04246086967577174    2    1   21   16
 -1.586858200397501e-09    2    1   21   21
 -1.217351892424459e-08    2    1   22   22
 -1.217350689697305e-08    2    1   23   23
 0.2519599589490699    2    1   24   22
 -1.231130939041702e-06    2    1   24   23
 1.218902806942798e-08    2    1   24   24
 1.231130939010477e-06    2    1   25   22
 0.2519599589490701    2    1   25   23
 1.218901635180458e-08    2    1   25   25
 0.01581054930452491    2    1   26    6
 -0.008529948930582199    2    1   26    7
 1.520549040411739e-12    2    1   26    8
 7.428859215069181e-11    2    1   26    9
 0.01548567368843746    2    1   26   11
 0.04693673856683207    2    1   26   12
 -3.788115844225934e-10    2    1   26   15
 1.50682460649601e-10    2    1   26   16
 -0.239048264422653    2    1   26   20
 0.002188704192357435    2    1   26   21
 1.65563269951402e-09    2    1   26   26
 0.008529948930582183    2    1   27    6
 0.01581054930452502    2    1   27    7
 7.430285098135314e-11    2    1   27    8
 -1.528655674265522e-12    2    1   27    9
 0.04693673856683189    2    1   27   11
 -0.01548567368843751    2    1   27   12
 -1.506785471134392e-10    2    1   27   15
 -3.788311660896104e-10    2    1   27   16
 -0.002188704192357449    2    1   27   20
 -0.239048264422653    2    1   27   21
 1.655610537554253e-09    2    1   27   27
 0.03703254951928488    2    1   28    1
 2.679722379467251e-07    2    1   28    2
 -0.03140338354589661    2    1   28    3
 -2.675005180471229e-10    2    1   28    4
 -0.004809839072355798    2    1   28    5
 1.233307423201269e-11    2    1   28   10
 -4.692680989886594e-10    2    1   28   13
 0.03569942419996336    2    1   28   14
 0.03916649227421416    2    1   28   17
 3.136583735796616e-10    2    1   28   18
 0.2292265718601921    2    1   28   19
 5.322334239998838e-10    2    1   28   28
 2.202693672619612    2    2    1    1
 2.785548628024104e-05    2    2    2    1
 2.202758831087251    2    2    2    2
 -0.195536770900219    2    2    3    1
 -4.253179640775774e-06    2    2    3    2
 0.6262361766840349    2    2    3    3
 -1.484623466608469e-06    2    2    4    1
 -0.2068513373661755    2    2    4    2
 4.891424129516424e-06    2    2    4    3
 0.6300427630381307    2    2    4    4
 0.04010823920061846    2    2    5    1
 7.974025963484074e-07    2    2    5    2
 0.01342226136947464    2    2    5    3
 -2.069101148573753e-06    2    2    5    4
 0.5964494543502877    2    2    5    5
 0.5657819207049842    2    2    6    6
 0.5657819207049828    2    2    7    7
 2.212859789144657e-06    2    2    8    6
 3.907555974526063e-06    2    2    8    7
 0.5873550505002111    2    2    8    8
 3.907556057734946e-06    2    2    9    6
 -2.212859784089151e-06    2    2    9    7
 0.5873550505002105    2    2    9    9
 5.181281575397865e-07    2    2   10    1
 0.06124187872730651    2    2   10    2
 -1.529695759531807e-06    2    2   10    3
 -0.05845949604956242    2    2   10    4
 -4.287377893136225e-06    2    2   10    5
 0.6362147994164852    2    2   10   10
 0.1598752563544863    2    2   11    6
 0.1511527120283821    2    2   11    7
 3.239024392135841e-06    2    2   11    8
 9.954266324464659e-07    2    2   11    9
 0.5862590706358882    2    2   11   11
 0.151152712028382    2    2   12    6
 -0.1598752563544858    2    2   12    7
 -9.954268106911055e-07    2    2   12    8
 3.239024243970181e-06    2    2   12    9
 0.5862590706358878    2    2   12   12
 5.336114250855949e-07    2    2   13    1
 0.08382730995263835    2    2   13    2
 -8.870810688685034e-07    2    2   13    3
 -0.1298359467804105    2    2   13    4
 2.828996170403729e-06    2    2   13    5
 -0.1918413477995828    2    2   13   10
 0.5215887715142787    2    2   13   13
 0.1510660843250938    2    2   14    1
 3.239587894206269e-06    2    2   14    2
 -0.1496002212355046    2    2   14    3
 -2.615079235161687e-06    2    2   14    4
 0.1469112956907447    2    2   14    5
 -5.440048383402321e-07    2    2   14   10
 3.784893366705404e-06    2    2   14   13
 0.497485427049172    2    2   14   14
 -2.737822624552276e-06    2    2   15    6
 3.195142085540002e-07    2    2   15    7
 -0.08921121250924978    2    2   15    8
 -0.2115377228617504    2    2   15    9
 -2.911584898935898e-06    2    2   15   11
 -3.476063183328e-06    2    2   15   12
 0.5530251849728678    2    2   15   15
 -3.195141270554173e-07    2    2   16    6
 -2.737822391615471e-06    2    2   16    7
 -0.2115377228617505    2    2   16    8
 0.08921121250924965    2    2   16    9
 -3.476063240380467e-06    2    2   16   11
 2.911584928368301e-06    2    2   16   12
 0.5530251849728663    2    2   16   16
 0.0998041187698948    2    2   17    1
 2.240728762411505e-06    2    2   17    2
 -0.1219215805238918    2    2   17    3
 -1.18274635324165e-06    2    2   17    4
 -0.1616360716017152    2    2   17    5
 3.394129195750874e-06    2    2   17   10
 -2.508423588453725e-06    2    2   17   13
 -0.001434228565455723    2    2   17   14
 0.6141353305764691    2    2   17   17
 1.006534924680279e-06    2    2   18    1
 0.1351115012552313    2    2   18    2
 -2.004649009654941e-06    2    2   18    3
 -0.136144623883798    2    2   18    4
 -4.399110207354943e-07    2    2   18    5
 0.1214004705369559    2    2   18   10
 -0.006621843314062187    2    2   18   13
 1.684872435324565e-06    2    2   18   14
 2.920220497217713e-06    2    2   18   17
 0.5034388917400153    2    2   18   18
 0.01434142281092144    2    2   19    1
 3.226726200522133e-07    2    2   19    2
 -0.002488579234678987    2    2   19    3
 -2.582473310887116e-07    2    2   19    4
 -0.007561120973804335    2    2   19    5
 1.606007980428301e-06    2    2   19   10
 -4.292755051002115e-07    2    2   19   13
 -0.002969618888508372    2    2   19   14
 0.04203466134160643    2    2   19   17
 -8.788276479668178e-07    2    2   19   18
 0.5358530966553998    2    2   19   19
 0.03093838695317241    2    2   20    6
 -0.01632764531918906    2    2   20    7
 -1.207341731419235e-08    2    2   20    8
 -4.067297460167975e-07    2    2   20    9
 -0.002242969708372329    2    2   20   11
 -0.006594839965466105    2    2   20   12
 -6.143940935697534e-07    2    2   20   15
 2.37890911059923e-07    2    2   20   16
 0.5202383434496133    2    2   20   20
 0.01632764531918904    2    2   21    6
 0.03093838695317206    2    2   21    7
 -4.067297041145113e-07    2    2   21    8
 1.207339171227593e-08    2    2   21    9
 -0.006594839965466079    2    2   21   11
 0.002242969708372356    2    2   21   12
 -2.3789091076502e-07    2    2   21   15
 -6.143940955126437e-07    2    2   21   16
 0.5202383434496123    2    2   21   21
 0.5168336771287334    2    2   22   22
 0.516833677128735    2    2   23   23
 3.646211043313412e-06    2    2   24   22
 -1.781616520979412e-11    2    2   24   23
 0.5173521156883799    2    2   24   24
 1.781617908758193e-11    2    2   25   22
 3.646211043484282e-06    2    2   25   23
 0.5173521156883798    2    2   25   25
 2.287096705823484e-07    2    2   26    6
 -1.233911441286817e-07    2    2   26    7
 0.0001596943529395499    2    2   26    8
 0.007781386081136305    2    2   26    9
 2.241198996263093e-07    2    2   26   11
 6.793025192929937e-07    2    2   26   12
 0.00207710071003325    2    2   26   15
 -0.0008261917056807556    2    2   26   16
 -3.459342229282167e-06    2    2   26   20
 3.167342333548762e-08    2    2   26   21
 0.5296685236847829    2    2   26   26
 1.23391143955643e-07    2    2   27    6
 2.287096619877152e-07    2    2   27    7
 0.007781386081136491    2    2   27    8
 -0.0001596943529396383    2    2   27    9
 6.793025204157935e-07    2    2   27   11
 -2.241199004494356e-07    2    2   27   12
 0.0008261917056808714    2    2   27   15
 0.002077100710033059    2    2   27   16
 -3.167342284976504e-08    2    2   27   20
 -3.459342229589213e-06    2    2   27   21
 0.5296685236847835    2    2   27   27
 2.691450595779024e-07    2    2   28    1
 0.03687377597806224    2    2   28    2
 -4.542270920443806e-07    2    2   28    3
 -0.03308572342322876    2    2   28    4
 -6.953940138477999e-08    2    2   28    5
 0.02510364710143774    2    2   28   10
 0.02205698597416922    2    2   28   13
 5.170081412327054e-07    2    2   28   14
 5.668740184483489e-07    2    2   28   17
 -0.01971941702595799    2    2   28   18
 3.31726195329507e-06    2    2   28   19
 0.5385360415072902    2    2   28   28
 -0.1955250060666923    3    1    1    1
 1.421590514723563e-06    3    1    2    1
 -0.1955367709002191    3    1    2    2
 0.03014802774461533    3    1    3    1
 -4.699739635405275e-10    3    1    3    2
 -0.006958562961286069    3    1    3    3
 -4.552101968788849e-07    3    1    4    1
 0.03144987791164481    3    1    4    2
 6.141889739766672e-08    3    1    4    3
 -0.009101501151851413    3    1    4    4
 -0.004507144255183506    3    1    5    1
 1.996955032625813e-10    3    1    5    2
 0.002742340750153828    3    1    5    3
 -2.914490309780965e-08    3    1    5    4
 -0.004911742597999641    3    1    5    5
 -0.003957612326914845    3    1    6    6
 -0.003957612326914827    3    1    7    7
 1.781423467958028e-08    3    1    8    6
 3.145708714685636e-08    3    1    8    7
 -0.004879103575443419    3    1    8    8
 3.14570844754667e-08    3    1    9    6
 -1.781423484453698e-08    3    1    9    7
 -0.004879103575443414    3    1    9    9
 1.635856270009992e-07    3    1   10    1
 -0.01131453826372467    3    1   10    2
 -1.208333184836538e-08    3    1   10    3
 0.0001453220602541963    3    1   10    4
 -3.459627182362369e-08    3    1   10    5
 -0.005403052226724483    3    1   10   10
 -0.004390054681187035    3    1   11    6
 -0.004150540153274281    3    1   11    7
 4.599146203557137e-08    3    1   11    8
 1.413423775191877e-08    3    1   11    9
 -0.008233650258157702    3    1   11   11
 -0.004150540153274285    3    1   12    6
 0.004390054681187025    3    1   12    7
 -1.41342331545962e-08    3    1   12    8
 4.59914658637597e-08    3    1   12    9
 -0.008233650258157688    3    1   12   12
 1.606527875703466e-07    3    1   13    1
 -0.01105656197635556    3    1   13    2
 -2.58765176711765e-08    3    1   13    3
 0.005367224623716786    3    1   13    4
 4.643426259957998e-08    3    1   13    5
 0.004631226232279928    3    1   13   10
 -0.008390771039440262    3    1   13   13
 -0.02212609563531463    3    1   14    1
 1.512272548275283e-10    3    1   14    2
 0.00603223037304859    3    1   14    3
 -5.421962983196147e-08    3    1   14    4
 -0.00482543662677457    3    1   14    5
 -1.336560637805718e-08    3    1   14   10
 5.377744530421002e-08    3    1   14   13
 -0.00758495419370288    3    1   14   14
 -4.135186289586129e-08    3    1   15    6
 4.825916982128488e-09    3    1   15    7
 0.002368461748319224    3    1   15    8
 0.005616099039934709    3    1   15    9
 -3.933734192146472e-08    3    1   15   11
 -4.696379875273595e-08    3    1   15   12
 -0.007732761087954603    3    1   15   15
 -4.825919254588078e-09    3    1   16    6
 -4.135186938504248e-08    3    1   16    7
 0.005616099039934708    3    1   16    8
 -0.002368461748319219    3    1   16    9
 -4.696379730295277e-08    3    1   16   11
 3.933734117053359e-08    3    1   16   12
 -0.007732761087954592    3    1   16   16
 -0.01733819909171257    3    1   17    1
 7.083638476248135e-12    3    1   17    2
 0.003765275087071882    3    1   17    3
 -1.898563306893432e-08    3    1   17    4
 0.004137031607042403    3    1   17    5
 4.677709725550109e-08    3    1   17   10
 -3.312241779090267e-08    3    1   17   13
 0.00094939094600926    3    1   17   14
 -0.007057651912641754    3    1   17   17
 3.091080354556251e-07    3    1   18    1
 -0.02136064193134993    3    1   18    2
 -3.812977603270746e-08    3    1   18    3
 0.005187561915635996    3    1   18    4
 -7.434134016741257e-10    3    1   18    5
 -0.002814449512210661    3    1   18   10
 -0.0006195065615647533    3    1   18   13
 2.324302241520162e-08    3    1   18   14
 3.347878878746737e-08    3    1   18   17
 -0.004063486366293939    3    1   18   18
 -0.002643889602221446    3    1   19    1
 1.754562861302902e-11    3    1   19    2
 0.0007753307793690861    3    1   19    3
 8.463507531305096e-11    3    1   19    4
 0.002414686766584228    3    1   19    5
 1.882387987097904e-08    3    1   19   10
 -1.281618015772234e-08    3    1   19   13
 0.0008061577439948489    3    1   19   14
 -0.002024112877980062    3    1   19   17
 4.868884105915479e-09    3    1   19   18
 -0.0007901637533694927    3    1   19   19
 0.0007516572471954219    3    1   20    6
 -0.0003966849646163104    3    1   20    7
 -1.548875432786779e-10    3    1   20    8
 -5.217851394275318e-09    3    1   20    9
 7.144480213508561e-05    3    1   20   11
 0.0002100639320658444    3    1   20   12
 3.375859988303466e-10    3    1   20   15
 -1.307118518080163e-10    3    1   20   16
 -0.0002933739260679696    3    1   20   20
 0.0003966849646163118    3    1   21    6
 0.0007516572471954255    3    1   21    7
 -5.217850343326937e-09    3    1   21    8
 1.548868697908172e-10    3    1   21    9
 0.0002100639320658509    3    1   21   11
 -7.144480213508972e-05    3    1   21   12
 1.307119043678929e-10    3    1   21   15
 3.375857833886811e-10    3    1   21   16
 -0.0002933739260679694    3    1   21   21
 -0.0004094530203992873    3    1   22   22
 -0.0004094530203992517    3    1   23   23
 7.315898208859463e-09    3    1   24   22
 -0.0004274895047924418    3    1   24   24
 7.315898211453925e-09    3    1   25   23
 -0.000427489504792405    3    1   25   25
 9.576247323693801e-09    3    1   26    6
 -5.166481654330866e-09    3    1   26    7
 -3.661210336587517e-05    3    1   26    8
 -0.001783988640099336    3    1   26    9
 3.516783637863082e-09    3    1   26   11
 1.065929451688555e-08    3    1   26   12
 0.001284194748971345    3    1   26   15
 -0.000510803855082277    3    1   26   16
 -7.21284732077331e-09    3    1   26   20
 6.604016554396857e-11    3    1   26   21
 -0.0005256849772710113    3    1   26   26
 5.166481527027532e-09    3    1   27    6
 9.576249989298493e-09    3    1   27    7
 -0.001783988640099338    3    1   27    8
 3.661210336587735e-05    3    1   27    9
 1.06592946484754e-08    3    1   27   11
 -3.516783798602619e-09    3    1   27   12
 0.0005108038550822748    3    1   27   15
 0.001284194748971348    3    1   27   16
 -6.604018870523748e-11    3    1   27   20
 -7.212847287702603e-09    3    1   27   21
 -0.0005256849772710126    3    1   27   27
 8.340708442062048e-08    3    1   28    1
 -0.005761375187448012    3    1   28    2
 -1.188442042288085e-08    3    1   28    3
 0.001265737828401626    3    1   28    4
 -1.006752655101469e-08    3    1   28    5
 -0.002531559533621063    3    1   28   10
 0.0008680120940629186    3    1   28   13
 3.013959682308901e-09    3    1   28   14
 1.530041598670276e-08    3    1   28   17
 -0.001404510645145614    3    1   28   18
 1.084847848424435e-08    3    1   28   19
 -0.0009267922966198745    3    1   28   28
 1.426694354966464e-06    3    2    1    1
 -0.19624130980315    3    2    2    1
 -4.25317964081908e-06    3    2    2    2
 -4.699739668912806e-10    3    2    3    1
 0.03014708491729116    3    2    3    2
 -5.015377117627802e-08    3    2    3    3
 0.03145576972802563    3    2    4    1
 4.551250456815155e-07    3    2    4    2
 -0.008477032819213998    3    2    4    3
 -6.590290678838071e-08    3    2    4    4
 2.000000049688493e-10    3    2    5    1
 -0.00453408120730761    3    2    5    2
 1.983418631278929e-08    3    2    5    3
 0.004030733179859013    3    2    5    4
 -3.549366375986003e-08    3    2    5    5
 -2.857076254775869e-08    3    2    6    6
 -2.857074914711068e-08    3    2    7    7
 -0.002459198551470936    3    2    8    6
 -0.004342550825788544    3    2    8    7
 -3.528124511840075e-08    3    2    8    8
 -0.004342550825788555    3    2    9    6
 0.00245919855147093    3    2    9    7
 -3.528123506362823e-08    3    2    9    9
 -0.01128308724291016    3    2   10    1
 -1.63434765055056e-07    3    2   10    2
 0.001663636326708563    3    2   10    3
 1.033420047688982e-09    3    2   10    4
 0.004775898218911546    3    2   10    5
 -3.90434222127799e-08    3    2   10   10
 -3.167920858840077e-08    3    2   11    6
 -2.99508334254498e-08    3    2   11    7
 -0.006343668168613719    3    2   11    8
 -0.001949555235273134    3    2   11    9
 -5.93522865398223e-08    3    2   11   11
 -2.99508438317023e-08    3    2   12    6
 3.167920466107068e-08    3    2   12    7
 0.001949555235273133    3    2   12    8
 -0.006343668168613711    3    2   12    9
 -5.93522878781856e-08    3    2   12   12
 -0.01108671075210146    3    2   13    1
 -1.597917181273954e-07    3    2   13    2
 0.003556826757119314    3    2   13    3
 3.87138162510003e-08    3    2   13    4
 -0.006399142282676929    3    2   13    5
 3.343457662891903e-08    3    2   13   10
 -6.040205877574616e-08    3    2   13   13
 1.50862532187276e-10    3    2   14    1
 -0.02214272792940626    3    2   14    2
 4.36040741874459e-08    3    2   14    3
 0.00750339473827522    3    2   14    4
 -3.499882296166641e-08    3    2   14    5
 0.001858179541087082    3    2   14   10
 -0.007429192990987079    3    2   14   13
 -5.507566794614771e-08    3    2   14   14
 0.005714410850138799    3    2   15    6
 -0.0006668932077775638    3    2   15    7
 1.714720803654863e-08    3    2   15    8
 4.065947538061111e-08    3    2   15    9
 0.005431927204360601    3    2   15   11
 0.006485032340220968    3    2   15   12
 -5.605409567188311e-08    3    2   15   15
 0.0006668932077775629    3    2   16    6
 0.005714410850138781    3    2   16    7
 4.06594846243775e-08    3    2   16    8
 -1.714720971235397e-08    3    2   16    9
 0.006485032340220969    3    2   16   11
 -0.005431927204360597    3    2   16   12
 -5.605410204283862e-08    3    2   16   16
 6.87030541052851e-12    3    2   17    1
 -0.01731243270934972    3    2   17    2
 2.71546742860994e-08    3    2   17    3
 0.002619844275533108    3    2   17    4
 2.989589584891628e-08    3    2   17    5
 -0.006456785261591033    3    2   17   10