 &FCI NORB=  28,NELEC=14,MS2=0,
  ORBSYM=1,1,1,1,1,1,1,1,1,1,1,1,1,1,1,1,1,1,1,1,1,1,1,1,1,1,1,1,
  ISYM=1,
 &END
 2.270795409662272    1    1    1    1
 -1.576488963727893e-10    1    1    2    1
 2.271066068809199    1    1    2    2
 -0.1917103524859561    1    1    3    1
 8.653487106567714e-12    1    1    3    2
 0.7603426180371067    1    1    3    3
 -2.411884745919539e-11    1    1    4    1
 0.1924122322652297    1    1    4    2
 1.792933596728163e-11    1    1    4    3
 0.6567487247655565    1    1    4    4
 0.06953444580359583    1    1    5    1
 -1.888088874157402e-12    1    1    5    2
 0.07370592915970714    1    1    5    3
 -2.070511362188554e-11    1    1    5    4
 0.6756367275136831    1    1    5    5
 0.641786615887655    1    1    6    6
 0.6417866158876554    1    1    7    7
 2.157659250920374e-11    1    1    8    6
 -3.469400764941066e-12    1    1    8    7
 0.6204716084673194    1    1    8    8
 -3.469149880558353e-12    1    1    9    6
 -2.157621043635816e-11    1    1    9    7
 0.6204716084673207    1    1    9    9
 1.607825059732787e-11    1    1   10    1
 -0.1220042030166652    1    1   10    2
 -1.511633439948978e-11    1    1   10    3
 -0.111953230535209    1    1   10    4
 -9.048677605816291e-12    1    1   10    5
 0.5299505603509918    1    1   10   10
 0.007180058679818679    1    1   11    1
 0.07441126275768302    1    1   11    3
 -4.662134393818018e-12    1    1   11    4
 0.1910340619902186    1    1   11    5
 0.5102051321319711    1    1   11   11
 0.2319185930980389    1    1   12    6
 0.01946119550997332    1    1   12    7
 1.496263383376009e-11    1    1   12    8
 -3.71356276892415e-12    1    1   12    9
 0.5999076206994636    1    1   12   12
 -0.01946119550997333    1    1   13    6
 0.2319185930980391    1    1   13    7
 -3.709143181398339e-12    1    1   13    8
 -1.496141676261137e-11    1    1   13    9
 0.5999076206994644    1    1   13   13
 -0.01283818562957935    1    1   14    2
 8.445936658385556e-12    1    1   14    3
 -0.112779390019417    1    1   14    4
 2.199440369415884e-11    1    1   14    5
 -0.215277356758122    1    1   14   10
 1.733096652301036e-11    1    1   14   11
 0.7043428497709435    1    1   14   14
 -0.1651239638969308    1    1   15    1
 6.766200230309827e-12    1    1   15    2
 0.1589116622377171    1    1   15    3
 1.52094190106894e-11    1    1   15    4
 -0.1192075827494453    1    1   15    5
 -6.377727772982622e-12    1    1   15   10
 0.006435675229643081    1    1   15   11
 -1.117432535391316e-11    1    1   15   14
 0.5558640293629686    1    1   15   15
 1.622436050525283e-11    1    1   16    7
 -0.02619454317846046    1    1   16    8
 -0.2525741365555968    1    1   16    9
 3.201691516074856e-12    1    1   16   12
 2.274838498995957e-11    1    1   16   13
 0.6032914722232847    1    1   16   16
 -1.622356665242214e-11    1    1   17    6
 -0.2525741365555969    1    1   17    8
 0.02619454317846047    1    1   17    9
 -2.274866449727964e-11    1    1   17   12
 3.20118974730943e-12    1    1   17   13
 0.6032914722232851    1    1   17   17
 2.006006240593535e-11    1    1   18    1
 -0.1558473504003627    1    1   18    2
 -1.351300473427519e-11    1    1   18    3
 -0.1498352024992076    1    1   18    4
 0.1578026621168692    1    1   18   10
 -2.916460475899108e-12    1    1   18   11
 -0.04878183110443292    1    1   18   14
 -1.485168260074998e-11    1    1   18   15
 0.5380412464109057    1    1   18   18
 0.002438022294784405    1    1   19    6
 0.0002547073201966885    1    1   19    7
 9.843733900921636e-12    1    1   19    8
 -2.655727634331972e-12    1    1   19    9
 0.03844564586646702    1    1   19   12
 0.0007835356338589637    1    1   19   13
 -5.021818030859215e-12    1    1   19   17
 0.607083747124648    1    1   19   19
 -0.0002547073201967145    1    1   20    6
 0.002438022294784188    1    1   20    7
 -2.655951847341242e-12    1    1   20    8
 -9.843533540360161e-12    1    1   20    9
 -0.000783535633858929    1    1   20   12
 0.03844564586646695    1    1   20   13
 5.021981094865957e-12    1    1   20   16
 0.6070837471246482    1    1   20   20
 0.5735781325991449    1    1   21   21
 0.5735781325991444    1    1   22   22
 -1.678318595210726e-11    1    1   23   21
 0.5712042156755683    1    1   23   23
 -1.678315819653164e-11    1    1   24   22
 0.5712042156755678    1    1   24   24
 0.05506097104848868    1    1   25    1
 -2.620576390437168e-12    1    1   25    2
 -0.04198114868558698    1    1   25    3
 -2.316062272522679e-12    1    1   25    4
 -0.01519994276568866    1    1   25    5
 1.188390705286757e-11    1    1   25   10
 0.005472041185517022    1    1   25   11
 -1.338464061806377e-11    1    1   25   14
 0.000564511172815238    1    1   25   15
 4.63443866616231e-12    1    1   25   18
 0.6449965884216611    1    1   25   25
 -1.570974253461976e-12    1    1   26    6
 -0.01896001486075493    1    1   26    8
 0.01166793404210525    1    1   26    9
 -2.509763230573725e-12    1    1   26   12
 -0.02470902449576748    1    1   26   16
 0.05137134783970724    1    1   26   17
 1.474581567961764e-11    1    1   26   19
 4.370392936436929e-12    1    1   26   20
 0.584884932156321    1    1   26   26
 -1.57085195545692e-12    1    1   27    7
 0.01166793404210535    1    1   27    8
 0.0189600148607548    1    1   27    9
 -2.509003421691247e-12    1    1   27   13
 -0.05137134783970716    1    1   27   16
 -0.02470902449576754    1    1   27   17
 -4.370233341877139e-12    1    1   27   19
 1.474555200164929e-11    1    1   27   20
 0.5848849321563215    1    1   27   27
 6.653342154823035e-12    1    1   28    1
 -0.04549321691777924    1    1   28    2
 -7.100512018631822e-12    1    1   28    3
 0.0216888387799763    1    1   28    4
 -8.216766676782949e-12    1    1   28    5
 0.0614848832650319    1    1   28   10
 -1.333081908749811e-11    1    1   28   11
 -0.1817431591608343    1    1   28   14
 -1.760341872270033e-12    1    1   28   15
 0.1053021609021567    1    1   28   18
 -8.809786233854311e-12    1    1   28   25
 0.6625715715918065    1    1   28   28
 -1.576490132028261e-10    2    1    1    1
 1.85429137767324    2    1    2    1
 1.576233992639378e-10    2    1    2    2
 8.406394956798573e-12    2    1    3    1
 -0.1975595156431061    2    1    3    2
 0.1874693758716897    2    1    4    1
 7.965471730424006e-12    2    1    4    2
 -0.2110281536719046    2    1    4    3
 -2.410772888243086e-12    2    1    5    1
 0.0572597968937605    2    1    5    2
 0.2434780381299474    2    1    5    4
 -0.2537679548941507    2    1    8    6
 0.04080519532063914    2    1    8    7
 0.0408051953206388    2    1    9    6
 0.2537679548941509    2    1    9    7
 -0.12807414000028    2    1   10    1
 -5.438514012235957e-12    2    1   10    2
 0.1777387457524105    2    1   10    3
 0.1063838288582929    2    1   10    5
 -0.002490053965034158    2    1   11    2
 0.05418890859369905    2    1   11    4
 0.007937380278215972    2    1   11   10
 -0.1754617968806847    2    1   12    8
 0.04352474868184593    2    1   12    9
 0.04352474868184623    2    1   13    8
 0.1754617968806851    2    1   13    9
 0.001414295874461443    2    1   14    1
 -0.1007015491828365    2    1   14    3
 -0.2588431223514554    2    1   14    5
 -0.2030717251519678    2    1   14   11
 6.896355910871069e-12    2    1   15    1
 -0.16227710639007    2    1   15    2
 -0.1795743315765783    2    1   15    4
 0.07363099411644511    2    1   15   10
 0.1323423263027071    2    1   15   14
 -0.01074365729037864    2    1   16    6
 -0.1913365556055383    2    1   16    7
 -0.03766237293491483    2    1   16   12
 -0.2676261280529164    2    1   16   13
 0.1913365556055385    2    1   17    6
 -0.01074365729037839    2    1   17    7
 0.2676261280529164    2    1   17   12
 -0.03766237293491453    2    1   17   13
 -0.1580314400213841    2    1   18    1
 -6.714646308587924e-12    2    1   18    2
 0.1589142866626598    2    1   18    3
 -0.006256830655488997    2    1   18    5
 0.03404990179066143    2    1   18   11
 0.1744547218398006    2    1   18   15
 -0.1158098903396743    2    1   19    8
 0.03124580978015214    2    1   19    9
 -0.009565949497446661    2    1   19   16
 0.05920574317580865    2    1   19   17
 0.03124580978015222    2    1   20    8
 0.1158098903396745    2    1   20    9
 -0.0592057431758085    2    1   20   16
 -0.009565949497446501    2    1   20   17
 0.1974242312463447    2    1   23   21
 0.002052650573788027    2    1   23   22
 -0.002052650573788152    2    1   24   21
 0.1974242312463445    2    1   24   22
 -2.477456176673222e-12    2    1   25    1
 0.0584224470453232    2    1   25    2
 0.02729697340543139    2    1   25    4
 -0.1398786922765595    2    1   25   10
 0.1575597481876612    2    1   25   14
 -0.05459101206338437    2    1   25   18
 0.01847051376882778    2    1   26    6
 0.007640617586346918    2    1   26    7
 0.02937724171814686    2    1   26   12
 0.009362213432216649    2    1   26   13
 -0.1734526539062327    2    1   26   19
 -0.05140858563321919    2    1   26   20
 -0.007640617586346904    2    1   27    6
 0.01847051376882783    2    1   27    7
 -0.009362213432216718    2    1   27   12
 0.02937724171814689    2    1   27   13
 0.05140858563321919    2    1   27   19
 -0.1734526539062327    2    1   27   20
 -0.05551483792957956    2    1   28    1
 -2.358808759211559e-12    2    1   28    2
 0.08351355546589938    2    1   28    3
 0.09663893946501485    2    1   28    5
 0.1560437851992231    2    1   28   11
 0.01955337831407234    2    1   28   15
 0.1035764235096095    2    1   28   25
 2.2710660688092    2    2    1    1
 1.576233076684419e-10    2    2    2    1
 2.271336789366067    2    2    2    2
 -0.1917501918953297    2    2    3    1
 -2.493794640191435e-11    2    2    3    2
 0.7603283190602265    2    2    3    3
 7.753783762034367e-12    2    2    4    1
 0.1924491176210324    2    2    4    2
 -1.795036992310872e-11    2    2    4    3
 0.656770189301309    2    2    4    4
 0.06954464607290599    2    2    5    1
 7.847865572999622e-12    2    2    5    2
 0.0736853840892813    2    2    5    3
 2.069176253949312e-11    2    2    5    4
 0.6756479377480267    2    2    5    5
 0.6417880570295396    2    2    6    6
 0.6417880570295399    2    2    7    7
 -2.156982231715787e-11    2    2    8    6
 3.468420863017574e-12    2    2    8    7
 0.6204813679548671    2    2    8    8
 3.468710561838062e-12    2    2    9    6
 2.15701870427687e-11    2    2    9    7
 0.6204813679548683    2    2    9    9
 -5.696219533909166e-12    2    2   10    1
 -0.1220305518992313    2    2   10    2
 1.510392592246612e-11    2    2   10    3
 -0.1119523273250132    2    2   10    4
 9.038798355620603e-12    2    2   10    5
 0.5299527827553616    2    2   10   10
 0.00717899654248007    2    2   11    1
 0.07440351006575494    2    2   11    3
 4.551319390810882e-12    2    2   11    4
 0.1910355942909358    2    2   11    5
 0.5102059611236706    2    2   11   11
 0.2319274824210313    2    2   12    6
 0.01946194144780606    2    2   12    7
 -1.486994311320974e-11    2    2   12    8
 3.686732559862738e-12    2    2   12    9
 0.5999182087348222    2    2   12   12
 -0.01946194144780611    2    2   13    6
 0.2319274824210315    2    2   13    7
 3.691037330378483e-12    2    2   13    8
 1.487117059269932e-11    2    2   13    9
 0.5999182087348232    2    2   13   13
 -0.01283689121184119    2    2   14    2
 -8.675588025752745e-12    2    2   14    3
 -0.1127962336771459    2    2   14    4
 -2.201489511521881e-11    2    2   14    5
 -0.2152762396857087    2    2   14   10
 -1.719627565344162e-11    2    2   14   11
 0.7043616012684351    2    2   14   14
 -0.1651561402073154    2    2   15    1
 -2.082591245994043e-11    2    2   15    2
 0.1589169962523541    2    2   15    3
 -1.532230917665467e-11    2    2   15    4
 -0.119225309095043    2    2   15    5
 6.14089378306315e-12    2    2   15   10
 0.006422654380445815    2    2   15   11
 1.132686999749666e-11    2    2   15   14
 0.5558748684552054    2    2   15   15
 -1.630717717977792e-11    2    2   16    7
 -0.0261957254396741    2    2   16    8
 -0.252585536204874    2    2   16    9
 -3.201654002679688e-12    2    2   16   12
 -2.275398836362741e-11    2    2   16   13
 0.6033064390378576    2    2   16   16
 1.630808454857607e-11    2    2   17    6
 -0.252585536204874    2    2   17    8
 0.02619572543967408    2    2   17    9
 2.275384589946194e-11    2    2   17   12
 -3.202237737129354e-12    2    2   17   13
 0.6033064390378584    2    2   17   17
 -6.807228939740329e-12    2    2   18    1
 -0.1558789073720317    2    2   18    2
 1.350574844018529e-11    2    2   18    3
 -0.1498449549240535    2    2   18    4
 0.1578035238386206    2    2   18   10
 2.872887041108219e-12    2    2   18   11
 -0.04877406770847714    2    2   18   14
 1.480965285301228e-11    2    2   18   15
 0.5380445548248877    2    2   18   18
 0.002455279604958518    2    2   19    6
 0.0002565102418671163    2    2   19    7
 -9.846605735636116e-12    2    2   19    8
 2.656793188227091e-12    2    2   19    9
 0.03845605838462684    2    2   19   12
 0.0007837478446004742    2    2   19   13
 5.044573266055341e-12    2    2   19   17
 0.607078088456164    2    2   19   19
 -0.0002565102418671406    2    2   20    6
 0.002455279604958295    2    2   20    7
 2.656557265834358e-12    2    2   20    8
 9.84679785626108e-12    2    2   20    9
 -0.0007837478446003944    2    2   20   12
 0.03845605838462676    2    2   20   13
 -5.044397191622529e-12    2    2   20   16
 0.6070780884561641    2    2   20   20
 0.5735742942582908    2    2   21   21
 0.5735742942582903    2    2   22   22
 1.678371330804396e-11    2    2   23   21
 0.5712037981796467    2    2   23   23
 1.678368555246834e-11    2    2   24   22
 0.5712037981796464    2    2   24   24
 0.05507213829387213    2    2   25    1
 7.313012229202137e-12    2    2   25    2
 -0.04199856072989554    2    2   25    3
 2.325031660255217e-12    2    2   25    4
 -0.0152182248201162    2    2   25    5
 -1.189847222485274e-11    2    2   25   10
 0.005462467474357802    2    2   25   11
 1.34042360544484e-11    2    2   25   14
 0.0005639687311141395    2    2   25   15
 -4.64731378380101e-12    2    2   25   18
 0.6449945287200998    2    2   25   25
 1.569447696803117e-12    2    2   26    6
 -0.01895238781409833    2    2   26    8
 0.01166324038136824    2    2   26    9
 2.485116279427046e-12    2    2   26   12
 -0.02470722843610344    2    2   26   16
 0.05136761373819472    2    2   26   17
 -1.474526056810532e-11    2    2   26   19
 -4.37032354749789e-12    2    2   26   20
 0.5848848552350567    2    2   26   26
 1.569573030574256e-12    2    2   27    7
 0.01166324038136828    2    2   27    8
 0.01895238781409815    2    2   27    9
 2.485861343159979e-12    2    2   27   13
 -0.05136761373819469    2    2   27   16
 -0.02470722843610356    2    2   27   17
 4.370392936436929e-12    2    2   27   19
 -1.474544097934682e-11    2    2   27   20
 0.5848848552350572    2    2   27   27
 -2.785048569760282e-12    2    2   28    1
 -0.04550542726126659    2    2   28    2
 7.099110362063232e-12    2    2   28    3
 0.02168891461675285    2    2   28    4
 8.213561775161082e-12    2    2   28    5
 0.06148043368436502    2    2   28   10
 1.320059686560349e-11    2    2   28   11
 -0.181742373578185    2    2   28   14
 1.563756069078437e-12    2    2   28   15
 0.1052978517941628    2    2   28   18
 8.800432604871844e-12    2    2   28   25
 0.6625761419532942    2    2   28   28
 -0.1917103524859561    3    1    1    1
 8.406396321921208e-12    3    1    2    1
 -0.1917501918953296    3    1    2    2
 0.03176789643335474    3    1    3    1
 0.001159517766214809    3    1    3    3
 2.266772303774228e-12    3    1    4    1
 -0.02658620101013188    3    1    4    2
 -0.01157084774577473    3    1    4    4
 -0.003935834051651161    3    1    5    1
 0.007380337041272567    3    1    5    3
 -0.007482200784581366    3    1    5    5
 -0.001413063399264083    3    1    6    6
 -0.001413063399264077    3    1    7    7
 -0.004402597379583134    3    1    8    8
 -0.004402597379583143    3    1    9    9
 -1.914999969762917e-12    3    1   10    1
 0.02259846224121967    3    1   10    2
 0.00081603048695904    3    1   10    4
 -0.001957621623463171    3    1   10   10
 0.004803727883561468    3    1   11    1
 0.002122504038244718    3    1   11    3
 -0.00282551706086386    3    1   11    5
 -0.002153977384328737    3    1   11   11
 -0.004399150236651837    3    1   12    6
 -0.0003691498887156289    3    1   12    7
 -0.005613715078284846    3    1   12   12
 0.0003691498887156296    3    1   13    6
 -0.004399150236651841    3    1   13    7
 -0.005613715078284855    3    1   13   13
 -0.0071171827702238    3    1   14    2
 0.008522056098327742    3    1   14    4
 0.0003095439671004726    3    1   14   10
 -0.01074688375328339    3    1   14   14
 0.02310880693159854    3    1   15    1
 -0.004465382312072378    3    1   15    3
 0.008571140405770452    3    1   15    5
 0.005546104777992363    3    1   15   11
 -0.007032834249062738    3    1   15   15
 0.0005710404152018387    3    1   16    8
 0.0055061101400139    3    1   16    9
 -0.007391998590954957    3    1   16   16
 0.005506110140013898    3    1   17    8
 -0.0005710404152018324    3    1   17    9
 -0.007391998590954968    3    1   17   17
 -2.105221412350421e-12    3    1   18    1
 0.0247839474705255    3    1   18    2
 0.005799208271855986    3    1   18    4
 -0.001407764187378166    3    1   18   10
 -0.003452801204096424    3    1   18   14
 -0.002794361933729952    3    1   18   18
 -0.006599300638352766    3    1   19    6
 -0.0006894482402248056    3    1   19    7
 -0.00471884803234473    3    1   19   12
 -9.617176407828952e-05    3    1   19   13
 0.0004279617816098592    3    1   19   19
 0.0006894482402248071    3    1   20    6
 -0.006599300638352768    3    1   20    7
 9.617176407828678e-05    3    1   20   12
 -0.004718848032344732    3    1   20   13
 0.0004279617816098608    3    1   20   20
 0.001583922674733658    3    1   21   21
 0.001583922674733637    3    1   22   22
 0.000569670022720758    3    1   23   23
 0.000569670022720733    3    1   24   24
 -0.011802290251997    3    1   25    1
 0.005127352737226505    3    1   25    3
 0.006743838304306872    3    1   25    5
 0.003872103744505641    3    1   25   11
 -0.0005961416597713869    3    1   25   15
 -0.001505956849151449    3    1   25   25
 -0.003345537605974798    3    1   26    8
 0.002058833413822671    3    1   26    9
 -0.000975241993280801    3    1   26   16
 0.002027578857809586    3    1   26   17
 -5.644899931388079e-05    3    1   26   26
 0.002058833413822672    3    1   27    8
 0.003345537605974804    3    1   27    9
 -0.002027578857809583    3    1   27   16
 -0.0009752419932807962    3    1   27   17
 -5.644899931387863e-05    3    1   27   27
 -1.167630366604272e-12    3    1   28    1
 0.01387571759718035    3    1   28    2
 0.0003988215251016867    3    1   28    4
 0.000486309512850599    3    1   28   10
 0.001245047052473304    3    1   28   14
 0.000836667622131248    3    1   28   18
 -0.002771542086955666    3    1   28   28
 8.65348270186404e-12    3    2    1    1
 -0.197559515643106    3    2    2    1
 -2.493791611709836e-11    3    2    2    2
 0.03161336308497977    3    2    3    2
 -0.02672651114118357    3    2    4    1
 -2.265365393242247e-12    3    2    4    2
 0.008402370845269961    3    2    4    3
 -0.004286096740440997    3    2    5    2
 -0.01208443115630759    3    2    5    4
 0.006856413359544775    3    2    8    6
 -0.0011024925761488    3    2    8    7
 -0.001102492576148786    3    2    9    6
 -0.00685641335954478    3    2    9    7
 0.02242819850639974    3    2   10    1
 1.912779155698014e-12    3    2   10    2
 -0.003770312801991943    3    2   10    3
 -0.001575027506328033    3    2   10    5
 0.004520162137076351    3    2   11    2
 -0.003735633518450594    3    2   11    4
 0.0002935969323477108    3    2   11   10
 0.00638268468187903    3    2   12    8
 -0.001583277680002112    3    2   12    9
 -0.001583277680002123    3    2   13    8
 -0.006382684681879044    3    2   13    9
 -0.006715144717255789    3    2   14    1
 -0.001160809133583341    3    2   14    3
 0.01085050149036408    3    2   14    5
 0.007962519896672607    3    2   14   11
 0.02319059743544258    3    2   15    2
 0.01044341142321854    3    2   15    4
 -0.002548971220684756    3    2   15   10
 -0.008544115876017196    3    2   15   14
 0.0003666514501352029    3    2   16    6
 0.006529789966352652    3    2   16    7
 0.001354536053014818    3    2   16   12
 0.009625236301570691    3    2   16   13
 -0.006529789966352658    3    2   17    6
 0.000366651450135199    3    2   17    7
 -0.009625236301570689    3    2   17   12
 0.001354536053014808    3    2   17   13
 0.02472283455104882    3    2   18    1
 2.103392634875303e-12    3    2   18    2
 -0.004889845313144237    3    2   18    3
 0.003948216440676073    3    2   18    5
 0.001148168079960638    3    2   18   11
 -0.00671825052620126    3    2   18   15
 0.005691354272956909    3    2   19    8
 -0.001535542193181285    3    2   19    9
 0.0007188687384141839    3    2   19   16
 -0.004449235061822996    3    2   19   17
 -0.001535542193181291    3    2   20    8
 -0.005691354272956916    3    2   20    9
 0.004449235061822989    3    2   20   16
 0.0007188687384141769    3    2   20   17
 -0.002998519676454119    3    2   23   21
 -3.117607750342908e-05    3    2   23   22
 3.11760775034036e-05    3    2   24   21
 -0.002998519676454128    3    2   24   22
 -0.01173572059456086    3    2   25    2
 0.001034907079642659    3    2   25    4
 0.005037187114122667    3    2   25   10
 -0.007574626148042411    3    2   25   14
 0.001932878060134999    3    2   25   18
 0.002288136032493779    3    2   26    6
 0.000946523341398939    3    2   26    7
 0.001179821482196074    3    2   26   12
 0.0003759965157454124    3    2   26   13
 0.003657409998379981    3    2   26   19
 0.001083997683881811    3    2   26   20
 -0.0009465233413989397    3    2   27    6
 0.00228813603249378    3    2   27    7
 -0.000375996515745409    3    2   27   12
 0.001179821482196076    3    2   27   13
 -0.001083997683881809    3    2   27   19
 0.003657409998379983    3    2   27   20
 0.01358264903716275    3    2   28    1
 1.166666891903756e-12    3    2   28    2
 -0.001111868400057352    3    2   28    3
 -0.0008013322228122255    3    2   28    5
 -0.003569698313539213    3    2   28   11
 0.0003454286137686632    3    2   28   15
 -0.0006406209350396941    3    2   28   25
 0.7603426180371066    3    3    1    1
 0.7603283190602264    3    3    2    2
 0.0011595177662148    3    3    3    1
 0.7189612655303692    3    3    3    3
 0.01658691483147835    3    3    4    2
 0.5041752944413933    3    3    4    4
 0.02415545434432364    3    3    5    1
 1.028351449133824e-12    3    3    5    2
 0.1260744465518973    3    3    5    3
 0.5440240028471613    3    3    5    5
 0.5760962746919346    3    3    6    6
 0.5760962746919347    3    3    7    7
 0.5183957240658288    3    3    8    8
 0.5183957240658296    3    3    9    9
 0.006443306621693332    3    3   10    2
 -0.09552775283773281    3    3   10    4
 0.4674735196416343    3    3   10   10
 0.01751716526733775    3    3   11    1
 0.06502693264450619    3    3   11    3
 0.1288160576548171    3    3   11    5
 0.4557293632453572    3    3   11   11
 0.1338062933275086    3    3   12    6
 0.01122820900267662    3    3   12    7
 0.4891098507438985    3    3   12   12
 -0.0112282090026766    3    3   13    6
 0.1338062933275087    3    3   13    7
 0.4891098507438992    3    3   13   13
 1.136097903659481e-12    3    3   14    1
 -0.02671814322918489    3    3   14    2
 -0.01965062736489705    3    3   14    4
 -0.1688033111407143    3    3   14   10
 0.5228205481198035    3    3   14   14
 -0.0119695987570978    3    3   15    1
 0.08792956875346665    3    3   15    3
 -0.02726928609663626    3    3   15    5
 0.06502911654178332    3    3   15   11
 0.4648538878012985    3    3   15   15
 -0.01489019659460325    3    3   16    8
 -0.1435748858990424    3    3   16    9
 0.4682750257928173    3    3   16   16
 -0.1435748858990424    3    3   17    8
 0.01489019659460326    3    3   17    9
 0.4682750257928179    3    3   17   17
 -0.001964300750726934    3    3   18    2
 -0.07110404071376478    3    3   18    4
 0.1105911395254772    3    3   18   10
 -0.05555962348726148    3    3   18   14
 0.4739151703157237    3    3   18   18
 -0.07814425418474835    3    3   19    6
 -0.00816395880167135    3    3   19    7
 -0.01353025959925218    3    3   19   12
 -0.0002757513963531182    3    3   19   13
 0.584716576779517    3    3   19   19
 0.008163958801671325    3    3   20    6
 -0.07814425418474857    3    3   20    7
 0.0002757513963531043    3    3   20   12
 -0.01353025959925228    3    3   20   13
 0.5847165767795173    3    3   20   20
 0.5584952542265785    3    3   21   21
 0.558495254226578    3    3   22   22
 0.539553618644072    3    3   23   23
 0.5395536186440715    3    3   24   24
 -0.005091844490268969    3    3   25    1
 0.03461709940189725    3    3   25    3
 0.06054204399698512    3    3   25    5
 0.04257657681614566    3    3   25   11
 -0.0008278164218478712    3    3   25   15
 0.5870147757991575    3    3   25   25
 -0.04709196219909033    3    3   26    8
 0.02898024673966008    3    3   26    9
 -0.02662150240607619    3    3   26   16
 0.0553474889448752    3    3   26   17
 0.5422686786839331    3    3   26   26
 0.02898024673966018    3    3   27    8
 0.04709196219909029    3    3   27    9
 -0.05534748894487507    3    3   27   16
 -0.02662150240607616    3    3   27   17
 0.5422686786839336    3    3   27   27
 0.01652079030692257    3    3   28    2
 0.01756587848068704    3    3   28    4
 0.04319795148668673    3    3   28   10
 -0.1212564949570683    3    3   28   14
 0.09117421356897852    3    3   28   18
 0.5548940138519942    3    3   28   28
 -2.411886460528629e-11    4    1    1    1
 0.1874693758716897    4    1    2    1
 7.753713767202073e-12    4    1    2    2
 2.266774663061253e-12    4    1    3    1
 -0.02672651114118356    4    1    3    2
 0.03045808326374325    4    1    4    1
 -0.004709286527062795    4    1    4    3
 -1.265340005010915e-12    4    1    5    1
 0.01475653821708048    4    1    5    2
 -0.002416340933928714    4    1    5    4
 -0.002624701777998055    4    1    8    6
 0.0004220448903972659    4    1    8    7
 0.0004220448903972582    4    1    9    6
 0.002624701777998058    4    1    9    7
 -0.01598532937075251    4    1   10    1
 0.008412086701318107    4    1   10    3
 0.001070401567543356    4    1   10    5
 0.005304252613090222    4    1   11    2
 0.0004052227588343823    4    1   11    4
 0.005129498324570142    4    1   11   10
 -0.005372721499817956    4    1   12    8
 0.001332747966647945    4    1   12    9
 0.001332747966647952    4    1   13    8
 0.005372721499817967    4    1   13    9
 -0.008203634642643703    4    1   14    1
 -0.006339098583465755    4    1   14    3
 -0.003859232498915868    4    1   14    5
 -0.005171321669748685    4    1   14   11
 2.210751516011925e-12    4    1   15    1
 -0.02602333215431236    4    1   15    2
 -0.00358985351114715    4    1   15    4
 0.004027552397224914    4    1   15   10
 -0.003226707139145123    4    1   15   14
 -0.0003100161111188369    4    1   16    6
 -0.005521156649032691    4    1   16    7
 -0.0008835798508646815    4    1   16   12
 -0.006278655217002257    4    1   16   13
 0.005521156649032695    4    1   17    6
 -0.0003100161111188346    4    1   17    7
 0.006278655217002256    4    1   17   12
 -0.0008835798508646726    4    1   17   13
 -0.02209770675422769    4    1   18    1
 0.007905562309381033    4    1   18    3
 0.001872149805383785    4    1   18    5
 0.002805209947928851    4    1   18   11
 0.003556132184497307    4    1   18   15
 0.001841593842792514    4    1   19    8
 -0.000496866811076513    4    1   19    9
 -4.099817468244592e-05    4    1   19   16
 0.0002537466251075136    4    1   19   17
 -0.0004968668110765133    4    1   20    8
 -0.001841593842792517    4    1   20    9
 -0.000253746625107514    4    1   20   16
 -4.099817468244732e-05    4    1   20   17
 -0.001263218911530244    4    1   23   21
 -1.313388436262406e-05    4    1   23   22
 1.313388436265518e-05    4    1   24   21
 -0.001263218911530231    4    1   24   22
 0.005501454680409479    4    1   25    2
 0.00323326859614071    4    1   25    4
 -0.001714997454057905    4    1   25   10
 0.0009519401091542317    4    1   25   14
 -0.003125120771748331    4    1   25   18
 0.003395319219367758    4    1   26    6
 0.001404527024177591    4    1   26    7
 0.00278566434171881    4    1   26   12
 0.0008877614980979281    4    1   26   13
 0.002401391225880666    4    1   26   19
 0.0007117338575936983    4    1   26   20
 -0.001404527024177593    4    1   27    6
 0.00339531921936776    4    1   27    7
 -0.0008877614980979276    4    1   27   12
 0.002785664341718812    4    1   27   13
 -0.0007117338575936975    4    1   27   19
 0.002401391225880665    4    1   27   20
 -0.00296185292162971    4    1   28    1
 0.007018279663768469    4    1   28    3
 0.007489622183410152    4    1   28    5
 0.005817359088226666    4    1   28   11
 0.00105926625899063    4    1   28   15
 -0.00572113942258989    4    1   28   25
 0.1924122322652297    4    2    1    1
 7.965482637690429e-12    4    2    2    1
 0.1924491176210323    4    2    2    2
 -0.02658620101013188    4    2    3    1