 &FCI NORB=  28,NELEC=14,MS2=0,
  ORBSYM=1,1,1,1,1,1,1,1,1,1,1,1,1,1,1,1,1,1,1,1,1,1,1,1,1,1,1,1,
  ISYM=1,
 &END
 2.182911396786202    1    1    1    1
 -6.881519499211344e-05    1    1    2    1
 2.182924999974181    1    1    2    2
 -0.1989224415590944    1    1    3    1
 3.532665177776856e-06    1    1    3    2
 0.6045122745504748    1    1    3    3
 1.097782929965245e-05    1    1    4    1
 -0.2072090347855024    1    1    4    2
 -1.301388841470851e-05    1    1    4    3
 0.6144330291201702    1    1    4    4
 -0.02845700672873696    1    1    5    1
 3.752767859132849e-07    1    1    5    2
 -0.00307709976001852    1    1    5    3
 -3.578313247330918e-06    1    1    5    4
 0.5625992520354697    1    1    5    5
 0.5503178997102209    1    1    6    6
 0.5503178997102219    1    1    7    7
 -3.646413880447768e-07    1    1    8    6
 1.161958737888626e-05    1    1    8    7
 0.5685907331121313    1    1    8    8
 -1.161958700146782e-05    1    1    9    6
 -3.646419831523421e-07    1    1    9    7
 0.5685907331121309    1    1    9    9
 2.297688679862803e-06    1    1   10    1
 -0.04073981359711394    1    1   10    2
 -2.302001829648811e-06    1    1   10    3
 0.044645547622327    1    1   10    4
 1.128518754818037e-05    1    1   10    5
 0.6060506026571705    1    1   10   10
 0.2007812740911247    1    1   11    6
 0.08795592005868542    1    1   11    7
 3.059176070545654e-06    1    1   11    8
 -7.625606874416221e-06    1    1   11    9
 0.563961313176915    1    1   11   11
 0.08795592005868524    1    1   12    6
 -0.2007812740911248    1    1   12    7
 -7.625606460898409e-06    1    1   12    8
 -3.059178745734792e-06    1    1   12    9
 0.5639613131769154    1    1   12   12
 5.195142408605176e-06    1    1   13    1
 -0.100039289724387    1    1   13    2
 -3.340713054454382e-06    1    1   13    3
 0.1349841423514725    1    1   13    4
 -6.300791026289979e-06    1    1   13    5
 -0.1769388055351317    1    1   13   10
 0.508254276898868    1    1   13   13
 -0.176252260627667    1    1   14    1
 3.102904477669455e-06    1    1   14    2
 0.1883801190013027    1    1   14    3
 -7.007865088758111e-06    1    1   14    4
 0.05412759450648396    1    1   14    5
 -1.770493115591768e-06    1    1   14   10
 -6.947244321381472e-06    1    1   14   13
 0.4969082071226457    1    1   14   14
 3.845949872758196e-06    1    1   15    6
 5.842922165355432e-06    1    1   15    7
 0.1841657615485688    1    1   15    8
 -0.1296803997010638    1    1   15    9
 9.723252463801229e-06    1    1   15   11
 -6.31180485286109e-06    1    1   15   12
 0.5430945906282827    1    1   15   15
 5.84291957826964e-06    1    1   16    6
 -3.845948806118621e-06    1    1   16    7
 -0.1296803997010637    1    1   16    8
 -0.1841657615485687    1    1   16    9
 6.311805189229962e-06    1    1   16   11
 9.723252814188531e-06    1    1   16   12
 0.5430945906282819    1    1   16   16
 -0.02709951881434914    1    1   17    1
 6.36330774823262e-07    1    1   17    2
 0.03513199764553995    1    1   17    3
 -4.847410823960425e-07    1    1   17    4
 -0.2057968978530226    1    1   17    5
 -9.172211721053774e-06    1    1   17   10
 9.176369346174205e-06    1    1   17   13
 0.0376488941605038    1    1   17   14
 0.5999964692322626    1    1   17   17
 -6.986241415835197e-06    1    1   18    1
 0.1302959340155779    1    1   18    2
 4.757718892165613e-06    1    1   18    3
 -0.1298725601208489    1    1   18    4
 -2.135203105589536e-06    1    1   18    5
 -0.1301350999223001    1    1   18   10
 0.01569880682723421    1    1   18   13
 6.211693654445405e-06    1    1   18   14
 5.851041079832755e-06    1    1   18   17
 0.5054442298571097    1    1   18   18
 -0.009614403428693238    1    1   19    1
 1.836461644467662e-07    1    1   19    2
 0.01852182971332622    1    1   19    3
 -1.019255432819534e-07    1    1   19    4
 -0.02658878677639457    1    1   19    5
 1.203737841232524e-06    1    1   19   10
 6.242317224184474e-07    1    1   19   13
 -5.729609364581167e-05    1    1   19   14
 -0.005407125594217359    1    1   19   17
 4.09380240415369e-06    1    1   19   18
 0.5024320957394968    1    1   19   19
 -0.02767767928585708    1    1   20    6
 0.003616567124977543    1    1   20    7
 -9.083782646457199e-08    1    1   20    8
 -5.582602780420699e-07    1    1   20    9
 0.00169165276958066    1    1   20   11
 0.001020518922818165    1    1   20   12
 -6.249003687420866e-07    1    1   20   15
 -1.286396869295756e-06    1    1   20   16
 0.5029464225764182    1    1   20   20
 -0.003616567124977328    1    1   21    6
 -0.02767767928585723    1    1   21    7
 5.582605384263405e-07    1    1   21    8
 -9.083813897283778e-08    1    1   21    9
 0.001020518922818343    1    1   21   11
 -0.001691652769580546    1    1   21   12
 -1.286396851351559e-06    1    1   21   15
 6.249003734262737e-07    1    1   21   16
 0.5029464225764191    1    1   21   21
 0.4994911045780256    1    1   22   22
 0.499491104578026    1    1   23   23
 3.186680086475491e-11    1    1   24   22
 -9.535827498075022e-06    1    1   24   23
 0.4996136373865641    1    1   24   24
 -9.535827498741156e-06    1    1   25   22
 -3.186691188705737e-11    1    1   25   23
 0.4996136373865638    1    1   25   25
 7.237879865438536e-08    1    1   26    6
 6.147122302100488e-07    1    1   26    7
 0.004229961186351945    1    1   26    8
 -0.0006331358853052711    1    1   26    9
 7.222708677946492e-07    1    1   26   11
 -1.232458970245806e-06    1    1   26   12
 0.002090678465742881    1    1   26   15
 -0.001048693167986548    1    1   26   16
 -1.174856760766119e-07    1    1   26   20
 9.231009088728204e-06    1    1   26   21
 0.5072665239719565    1    1   26   26
 6.147122150273153e-07    1    1   27    6
 -7.237878058658984e-08    1    1   27    7
 -0.000633135885305301    1    1   27    8
 -0.004229961186351993    1    1   27    9
 1.232458969727124e-06    1    1   27   11
 7.222708660221955e-07    1    1   27   12
 0.001048693167986578    1    1   27   15
 0.002090678465743089    1    1   27   16
 9.231009093252363e-06    1    1   27   20
 1.174856721908313e-07    1    1   27   21
 0.5072665239719566    1    1   27   27
 -2.228628337111623e-06    1    1   28    1
 0.04153055940116177    1    1   28    2
 1.401307189723361e-06    1    1   28    3
 -0.03473354782810381    1    1   28    4
 -9.770441396312821e-07    1    1   28    5
 -0.04251088596002654    1    1   28   10
 -0.0005110816810865067    1    1   28   13
 2.32424133700046e-06    1    1   28   14
 3.334462827504856e-06    1    1   28   17
 0.004486901470418588    1    1   28   18
 -8.244801123186152e-06    1    1   28   19
 0.5227047809202998    1    1   28   28
 -6.881519499184964e-05    2    1    1    1
 1.944816675497606    2    1    2    1
 6.881469106117699e-05    2    1    2    2
 3.52833485838155e-06    2    1    3    1
 -0.199169274839719    2    1    3    2
 -1.636441895867089e-08    2    1    3    3
 -0.2067679046327433    2    1    4    1
 -3.662400145109406e-06    2    1    4    2
 0.3677831478020439    2    1    4    3
 1.587820234016975e-08    2    1    4    4
 4.391393665413231e-07    2    1    5    1
 -0.02484418440595627    2    1    5    2
 -1.658190891365462e-09    2    1    5    3
 0.1011312888853949    2    1    5    4
 -2.132885389450625e-09    2    1    5    5
 -3.595956277429972e-09    2    1    6    6
 -4.124954840049357e-12    2    1    7    6
 -3.601556914178505e-09    2    1    7    7
 0.01030501997787377    2    1    8    6
 -0.3283773711276928    2    1    8    7
 3.053545287595174e-09    2    1    8    8
 0.3283773711276925    2    1    9    6
 0.01030501997787427    2    1    9    7
 -3.923769031314184e-12    2    1    9    8
 3.048908683296158e-09    2    1    9    9
 -0.04456232398471498    2    1   10    1
 -7.881969158611736e-07    2    1   10    2
 0.06502796339609013    2    1   10    3
 1.481313444479039e-09    2    1   10    4
 -0.3189241494159327    2    1   10    5
 1.764497110896086e-09    2    1   10   10
 -3.569496384237593e-09    2    1   11    6
 -1.565678342064434e-09    2    1   11    7
 -0.08643575063700867    2    1   11    8
 0.2154582583462649    2    1   11    9
 -8.896727125040399e-09    2    1   11   11
 -1.561986782226536e-09    2    1   12    6
 3.570178587212667e-09    2    1   12    7
 0.2154582583462651    2    1   12    8
 0.08643575063700872    2    1   12    9
 -8.896497197946867e-09    2    1   12   12
 -0.09664271474517651    2    1   13    1
 -1.704220153050412e-06    2    1   13    2
 0.09416051266360806    2    1   13    3
 -4.797967395579078e-09    2    1   13    4
 0.177922658929707    2    1   13    5
 1.366269676008561e-09    2    1   13   10
 -2.077265304990176e-08    2    1   13   13
 3.109117568529333e-06    2    1   14    1
 -0.1759097128641056    2    1   14    2
 -1.417171269055175e-09    2    1   14    3
 0.1982931044215115    2    1   14    4
 6.5516618154445e-09    2    1   14    5
 0.04985015634580824    2    1   14   10
 0.1963681595608822    2    1   14   13
 1.282006498789373e-08    2    1   14   14
 -0.1087221169307558    2    1   15    6
 -0.1651750114751096    2    1   15    7
 3.41656367477089e-09    2    1   15    8
 -2.40539259949545e-09    2    1   15    9
 -0.2748074671254566    2    1   15   11
 0.1783900115734205    2    1   15   12
 9.365208884929484e-09    2    1   15   15
 -0.1651750114751092    2    1   16    6
 0.1087221169307557    2    1   16    7
 -2.404020989858736e-09    2    1   16    8
 -3.41353077745808e-09    2    1   16    9
 -0.1783900115734202    2    1   16   11
 -0.2748074671254568    2    1   16   12
 9.3634132853921e-09    2    1   16   16
 5.587537383924765e-07    2    1   17    1
 -0.03148588138491198    2    1   17    2
 -1.881112905072516e-09    2    1   17    3
 0.01366610200679381    2    1   17    4
 -1.604123293967802e-09    2    1   17    5
 0.2593022774713418    2    1   17   10
 -0.2593443179470691    2    1   17   13
 -1.242730548006135e-08    2    1   17   14
 6.957646123986977e-09    2    1   17   17
 0.1323093988547512    2    1   18    1
 2.341298405140135e-06    2    1   18    2
 -0.1343945719686392    2    1   18    3
 -3.580709987468112e-09    2    1   18    4
 0.06033594646147901    2    1   18    5
 -9.32179897291871e-10    2    1   18   10
 3.849308499118825e-09    2    1   18   13
 -0.1755420335769078    2    1   18   14
 -0.1653792068553041    2    1   18   17
 1.458806122775491e-09    2    1   18   18
 1.767213976457397e-07    2    1   19    1
 -0.01000595483531772    2    1   19    2
 2.560391908256257e-10    2    1   19    3
 0.002900866731024521    2    1   19    4
 -3.172258597299027e-10    2    1   19    5
 -0.03400704015863693    2    1   19   10
 -0.01764388209042534    2    1   19   13
 -4.187205391442683e-10    2    1   19   14
 5.985687466514289e-10    2    1   19   17
 -0.1156968944949063    2    1   19   18
 -1.102039237643737e-09    2    1   19   19
 -4.40839985392863e-10    2    1   20    6
 5.75431770375584e-11    2    1   20    7
 0.002565966068098619    2    1   20    8
 0.01576958475068638    2    1   20    9
 -2.022915509148487e-10    2    1   20   11
 -1.220999547128787e-10    2    1   20   12
 0.01766080265031646    2    1   20   15
 0.03635587708945413    2    1   20   16
 -8.620433450401421e-09    2    1   20   20
 -5.767968080157976e-11    2    1   21    6
 -4.409611708980701e-10    2    1   21    7
 -0.01576958475068636    2    1   21    8
 0.00256596606809892    2    1   21    9
 -1.21941005036541e-10    2    1   21   11
 2.02240084921923e-10    2    1   21   12
 0.03635587708945426    2    1   21   15
 -0.01766080265031687    2    1   21   16
 -8.619850291879949e-09    2    1   21   21
 -6.52756631039364e-08    2    1   22   22
 -6.527573022385713e-08    2    1   23   23
 -9.006050121287967e-07    2    1   24   22
 0.2694968072399646    2    1   24   23
 6.526909385184965e-08    2    1   24   24
 0.2694968072399643    2    1   25   22
 9.0060501204553e-07    2    1   25   23
 6.526902605191731e-08    2    1   25   25
 -0.002044078654574427    2    1   26    6
 -0.01736033637757214    2    1   26    7
 3.018661302910466e-10    2    1   26    8
 -4.524888244043096e-11    2    1   26    9
 -0.02041282136162231    2    1   26   11
 0.03483175903154049    2    1   26   12
 2.31501696068212e-11    2    1   26   15
 -1.154924766932908e-11    2    1   26   16
 0.003320300637381278    2    1   26   20
 -0.2608805336433762    2    1   26   21
 8.689909861137046e-09    2    1   26   26
 -0.01736033637757218    2    1   27    6
 0.002044078654574567    2    1   27    7
 -4.509903876129956e-11    2    1   27    8
 -3.017443879396037e-10    2    1   27    9
 -0.03483175903154027    2    1   27   11
 -0.02041282136162246    2    1   27   12
 1.15946787761223e-11    2    1   27   15
 2.298929970001584e-11    2    1   27   16
 -0.2608805336433759    2    1   27   20
 -0.003320300637381292    2    1   27   21
 8.690480460260552e-09    2    1   27   27
 0.04222010846009281    2    1   28    1
 7.469664293951585e-07    2    1   28    2
 -0.03958128806729586    2    1   28    3
 -9.233056978480078e-10    2    1   28    4
 0.02760678199316042    2    1   28    5
 -1.268229115475306e-10    2    1   28   10
 9.586263744615353e-10    2    1   28   13
 -0.06568793864392215    2    1   28   14
 -0.09423946009106438    2    1   28   17
 4.904111700065883e-10    2    1   28   18
 0.2330090388237997    2    1   28   19
 1.607453947727322e-09    2    1   28   28
 2.182924999974182    2    2    1    1
 6.881469106119816e-05    2    2    2    1
 2.182938614055466    2    2    2    2
 -0.1989250334391502    2    2    3    1
 -1.056209966393221e-05    2    2    3    2
 0.6045118896570933    2    2    3    3
 -3.654586330147312e-06    2    2    4    1
 -0.207211283354648    2    2    4    2
 1.301321905740186e-05    2    2    4    3
 0.6144344511308936    2    2    4    4
 -0.02845468632078062    2    2    5    1
 -1.382843914720554e-06    2    2    5    2
 -0.003072480594557698    2    2    5    3
 3.578499070174617e-06    2    2    5    4
 0.5625985377008266    2    2    5    5
 0.5503180725873453    2    2    6    6
 0.5503180725873459    2    2    7    7
 3.646194942853536e-07    2    2    8    6
 -1.161887037451519e-05    2    2    8    7
 0.5685913463578538    2    2    8    8
 1.161887075192685e-05    2    2    9    6
 3.646188991358864e-07    2    2    9    7
 0.5685913463578534    2    2    9    9
 -8.558153217201367e-07    2    2   10    1
 -0.04074331351128276    2    2   10    2
 2.299867052740816e-06    2    2   10    3
 0.04464135570130544    2    2   10    4
 -1.128428900439162e-05    2    2   10    5
 0.606048130771948    2    2   10   10
 0.2007822690918078    2    2   11    6
 0.08795635593698596    2    2   11    7
 -3.057669108728759e-06    2    2   11    8
 7.621843389944865e-06    2    2   11    9
 0.5639619623811626    2    2   11   11
 0.087956355936986    2    2   12    6
 -0.200782269091808    2    2   12    7
 7.621843803499119e-06    2    2   12    8
 3.057666433558818e-06    2    2   12    9
 0.5639619623811631    2    2   12   12
 -1.644056220488489e-06    2    2   13    1
 -0.1000374957238886    2    2   13    2
 3.322794385113658e-06    2    2   13    3
 0.1349868945253587    2    2   13    4
 6.290357268298491e-06    2    2   13    5
 -0.1769387491079877    2    2   13   10
 0.5082567851494599    2    2   13   13
 -0.1762540076001152    2    2   14    1
 -9.345823483920183e-06    2    2   14    2
 0.1883809818338029    2    2   14    3
 7.024849626956679e-06    2    2   14    4
 0.05412931683960286    2    2   14    5
 1.757279670176195e-06    2    2   14   10
 6.949246688056718e-06    2    2   14   13
 0.4969089292139321    2    2   14   14
 -3.848046565928279e-06    2    2   15    6
 -5.846106579921122e-06    2    2   15    7
 0.1841662557799396    2    2   15    8
 -0.1296807477142947    2    2   15    9
 -9.724195133090178e-06    2    2   15   11
 6.312416891154075e-06    2    2   15   12
 0.5430951592494061    2    2   15   15
 -5.8461091670543e-06    2    2   16    6
 3.848047632598232e-06    2    2   16    7
 -0.1296807477142946    2    2   16    8
 -0.1841662557799393    2    2   16    9
 -6.312416554870041e-06    2    2   16   11
 -9.724194782860214e-06    2    2   16   12
 0.5430951592494053    2    2   16   16
 -0.02710360808848862    2    2   17    1
 -1.591919874805771e-06    2    2   17    2
 0.03512950050671931    2    2   17    3
 4.823751994047616e-07    2    2   17    4
 -0.2057968142999265    2    2   17    5
 9.177971798663863e-06    2    2   17   10
 -9.176789224535451e-06    2    2   17   13
 0.03764555927199787    2    2   17   14
 0.5999943209422024    2    2   17   17
 2.376910961904757e-06    2    2   18    1
 0.1302992081259338    2    2   18    2
 -4.753053960827262e-06    2    2   18    3
 -0.1298720862555281    2    2   18    4
 2.134623228977096e-06    2    2   18    5
 -0.1301319456314859    2    2   18   10
 0.01569706354819781    2    2   18   13
 -6.210983760407754e-06    2    2   18   14
 -5.852438026349768e-06    2    2   18   17
 0.5054413569688059    2    2   18   18
 -0.00961484052309788    2    2   19    1
 -5.244583560322236e-07    2    2   19    2
 0.01852057345142679    2    2   19    3
 1.033616223300579e-07    2    2   19    4
 -0.02658541809913981    2    2   19    5
 -1.202856637711781e-06    2    2   19   10
 -6.243823656411698e-07    2    2   19   13
 -5.77287325971669e-05    2    2   19   14
 -0.00540899140485582    2    2   19   17
 -4.093781849179301e-06    2    2   19   18
 0.5024310111421512    2    2   19   19
 -0.02767477173262324    2    2   20    6
 0.003616187202899137    2    2   20    7
 9.074926653478317e-08    2    2   20    8
 5.577143595524026e-07    2    2   20    9
 0.001692851906774302    2    2   20   11
 0.001021242323163181    2    2   20   12
 6.249111379392526e-07    2    2   20   15
 1.286419011248957e-06    2    2   20   16
 0.5029456010120793    2    2   20   20
 -0.003616187202898932    2    2   21    6
 -0.02767477173262339    2    2   21    7
 -5.577140992018507e-07    2    2   21    8
 9.074895406489814e-08    2    2   21    9
 0.001021242323163375    2    2   21   11
 -0.001692851906774188    2    2   21   12
 1.286419029190985e-06    2    2   21   15
 -6.24911133258535e-07    2    2   21   16
 0.5029456010120801    2    2   21   21
 0.4994912889604941    2    2   22   22
 0.4994912889604946    2    2   23   23
 -3.186682862033052e-11    2    2   24   22
 9.535797774379295e-06    2    2   24   23
 0.499613827351359    2    2   24   24
 9.535797773782551e-06    2    2   25   22
 3.186667596466464e-11    2    2   25   23
 0.4996138273513586    2    2   25   25
 -7.22756170743518e-08    2    2   26    6
 -6.1383605005059e-07    2    2   26    7
 0.004232962409431681    2    2   26    8
 -0.0006335851050375303    2    2   26    9
 -7.222942255166558e-07    2    2   26   11
 1.232498829774678e-06    2    2   26   12
 0.002092065160380907    2    2   26   15
 -0.001049388739886685    2    2   26   16
 1.174838220041607e-07    2    2   26   20
 -9.230863722869964e-06    2    2   26   21
 0.5072658548709397    2    2   26   26
 -6.13836065263898e-07    2    2   27    6
 7.227563517293867e-08    2    2   27    7
 -0.0006335851050375513    2    2   27    8
 -0.004232962409431722    2    2   27    9
 -1.23249883029683e-06    2    2   27   11
 -7.222942272899768e-07    2    2   27   12
 0.001049388739886701    2    2   27   15
 0.002092065160381108    2    2   27   16
 -9.230863718345805e-06    2    2   27   20
 -1.174838258899413e-07    2    2   27   21
 0.5072658548709398    2    2   27   27
 7.591655337363567e-07    2    2   28    1
 0.04153164584904079    2    2   28    2
 -1.399763065882418e-06    2    2   28    3
 -0.03473415105613828    2    2   28    4
 9.766198271398893e-07    2    2   28    5
 -0.0425137786824729    2    2   28   10
 -0.0005101987055015182    2    2   28   13
 -2.324332259895541e-06    2    2   28   14
 -3.334631670447522e-06    2    2   28   17
 0.004487245014503198    2    2   28   18
 8.244674650964567e-06    2    2   28   19
 0.5227038719800224    2    2   28   28
 -0.1989224415590945    3    1    1    1
 3.528334858319299e-06    3    1    2    1
 -0.1989250334391503    3    1    2    2
 0.03104672994627046    3    1    3    1
 -1.437286224500617e-09    3    1    3    2
 -0.007892233218380845    3    1    3    3
 -1.140720074250999e-06    3    1    4    1
 0.03223562147027383    3    1    4    2
 1.518168195724962e-07    3    1    4    3
 -0.008919732377827    3    1    4    4
 0.003667478869959434    3    1    5    1
 -2.26481327042097e-10    3    1    5    2
 -0.001625903598426743    3    1    5    3
 4.141645587694614e-08    3    1    5    4
 -0.004498417936425746    3    1    5    5
 -0.004370825212287089    3    1    6    6
 -0.004370825212287093    3    1    7    7
 2.702174102068148e-09    3    1    8    6
 -8.610712964410041e-08    3    1    8    7
 -0.004943907604372153    3    1    8    8
 8.610711880344876e-08    3    1    9    6
 2.702191199187842e-09    3    1    9    7
 -0.004943907604372156    3    1    9    9
 -2.580684042974954e-07    3    1   10    1
 0.007294718906435647    3    1   10    2
 2.370476674411147e-08    3    1   10    3
 -0.0005017408230787216    3    1   10    4
 -8.452652556555222e-08    3    1   10    5
 -0.005591200649813898    3    1   10   10
 -0.005592179589693035    3    1   11    6
 -0.002449756846953864    3    1   11    7
 -4.276234942268193e-08    3    1   11    8
 1.065937341070477e-07    3    1   11    9
 -0.008289071905763605    3    1   11   11
 -0.002449756846953855    3    1   12    6
 0.005592179589693037    3    1   12    7
 1.065937231726595e-07    3    1   12    8
 4.276242013376364e-08    3    1   12    9
 -0.008289071905763619    3    1   12   12
 -5.250932310139428e-07    3    1   13    1
 0.01479953780924297    3    1   13    2
 7.452092974960213e-08    3    1   13    3
 -0.005201891827112767    3    1   13    4
 1.000988237079092e-07    3    1   13    5
 0.004661390989702516    3    1   13   10
 -0.008025040753637332    3    1   13   13
 0.02744958823576624    3    1   14    1
 -1.92460322080042e-10    3    1   14    2
 -0.007237785063557653    3    1   14    3
 1.359724521845592e-07    3    1   14    4
 -0.001770563226127588    3    1   14    5
 1.231053307123806e-08    3    1   14   10
 8.447362510346017e-08    3    1   14   13
 -0.006701900215461385    3    1   14   14
 -5.819934721481591e-08    3    1   15    6
 -8.841880234001913e-08    3    1   15    7
 -0.005137804246946654    3    1   15    8
 0.003617787056223007    3    1   15    9
 -1.242128231098539e-07    3    1   15   11
 8.063218508903628e-08    3    1   15   12
 -0.00807336323966075    3    1   15   15
 -8.841872729594477e-08    3    1   16    6
 5.819931626823309e-08    3    1   16    7
 0.003617787056223004    3    1   16    8
 0.005137804246946651    3    1   16    9
 -8.06321940548903e-08    3    1   16   11
 -1.24212832441709e-07    3    1   16   12
 -0.008073363239660746    3    1   16   16
 0.005365165275623055    3    1   17    1
 -1.254324024860301e-10    3    1   17    2
 -0.001052059475204458    3    1   17    3
 1.059513715428344e-09    3    1   17    4
 0.006051473903364376    3    1   17    5
 1.255698440144466e-07    3    1   17   10
 -1.186033914088227e-07    3    1   17   13
 0.0001991655233542704    3    1   17   14
 -0.008760442466754718    3    1   17   17
 7.352144386639843e-07    3    1   18    1
 -0.02077073347987413    3    1   18    2
 -9.466874027478241e-08    3    1   18    3
 0.005135244332701972    3    1   18    4
 3.093618752658521e-08    3    1   18    5
 0.003865844824685352    3    1   18   10
 -0.0002636653335615813    3    1   18   13
 -7.97644096048427e-08    3    1   18   14
 -8.009761965055021e-08    3    1   18   17
 -0.005206759035297991    3    1   18   18
 0.001556742469144687    3    1   19    1
 3.664812078607364e-11    3    1   19    2
 -0.0003466026553823187    3    1   19    3
 8.03078538157822e-09    3    1   19    4
 -0.0004466604258175571    3    1   19    5
 -4.825346270522606e-09    3    1   19   10
 3.799449336852173e-09    3    1   19   13
 -0.0003208391595837712    3    1   19   14
 3.040134887438385e-05    3    1   19   17
 -8.927483701836984e-09    3    1   19   18
 -0.0005436390555656327    3    1   19   19
 -0.000181706838551639    3    1   20    6
 2.374313871846707e-05    3    1   20    7
 3.937375929006918e-10    3    1   20    8
 2.419773358996295e-09    3    1   20    9
 0.0001043450166927461    3    1   20   11
 6.294794413580836e-05    3    1   20   12
 1.688854685397391e-09    3    1   20   15
 3.476613244844003e-09    3    1   20   16
 -0.0005465621784689666    3    1   20   20
 -2.374313871847221e-05    3    1   21    6
 -0.0001817068385516369    3    1   21    7
 -2.419770646546499e-09    3    1   21    8
 3.937343631523113e-10    3    1   21    9
 6.294794413580332e-05    3    1   21   11
 -0.000104345016692752    3    1   21   12
 3.47661420013242e-09    3    1   21   15
 -1.688854443727457e-09    3    1   21   16
 -0.0005465621784689676    3    1   21   21
 -0.0005752571990640861    3    1   22   22
 -0.0005752571990640728    3    1   23   23
 1.401093461123873e-08    3    1   24   23
 -0.0005768966944798287    3    1   24   24
 1.401093461187569e-08    3    1   25   22
 -0.0005768966944798422    3    1   25   25
 -1.794008895581698e-09    3    1   26    6
 -1.523645235197159e-08    3    1   26    7
 -0.0009748324218281249    3    1   26    8
 0.0001459118325742325    3    1   26    9
 -8.466805100669627e-09    3    1   26   11
 1.444747406310255e-08    3    1   26   12
 -0.000754896300861932    3    1   26   15
 0.0003786591798901386    3    1   26   16
 1.708369041120584e-10    3    1   26   20
 -1.342287870449417e-08    3    1   26   21
 -0.0006166365324517888    3    1   26   26
 -1.523644226013327e-08    3    1   27    6
 1.793997240691041e-09    3    1   27    7
 0.0001459118325742342    3    1   27    8
 0.0009748324218281241    3    1   27    9
 -1.444747391512716e-08    3    1   27   11
 -8.466804565729358e-09    3    1   27   12
 -0.0003786591798901358    3    1   27   15
 -0.000754896300861933    3    1   27   16
 -1.34228789596205e-08    3    1   27   20
 -1.708366786522166e-10    3    1   27   21
 -0.0006166365324517893    3    1   27   27
 2.356704937068735e-07    3    1   28    1
 -0.006657283907741816    3    1   28    2
 -3.11114052435768e-08    3    1   28    3
 0.001543002997567496    3    1   28    4
 2.768708621480641e-08    3    1   28    5
 0.00246261140240967    3    1   28   10
 -0.000944702926578918    3    1   28   13
 -2.460043185544496e-08    3    1   28   14
 -4.545000278988399e-08    3    1   28   17
 -0.001966669746912723    3    1   28   18
 1.168820165431189e-08    3    1   28   19
 -0.001414099162559939    3    1   28   28
 3.53266517770616e-06    3    2    1    1
 -0.1991692748397192    3    2    2    1
 -1.056209966390071e-05    3    2    2    2
 -1.437286227003306e-09    3    2    3    1
 0.03104669872097264    3    2    3    2
 -1.390513547317986e-07    3    2    3    3
 0.03223695303871169    3    2    4    1
 1.140562512371299e-06    3    2    4    2
 -0.008568995789177894    3    2    4    3
 -1.579763226586353e-07    3    2    4    4
 -2.268586479413639e-10    3    2    5    1
 0.00367649277098055    3    2    5    2
 -2.87395114901353e-08    3    2    5    3
 -0.002342878431609299    3    2    5    4
 -7.944895257180076e-08    3    2    5    5
 -7.716511469151892e-08    3    2    6    6
 -7.716502915751379e-08    3    2    7    7
 -0.0001525335152835326    3    2    8    6
 0.004860597540346333    3    2    8    7
 -8.739082553796446e-08    3    2    8    8
 -0.004860597540346334    3    2    9    6
 -0.0001525335152835452    3    2    9    7
 -8.739076028275447e-08    3    2    9    9
 0.007283880806157955    3    2   10    1
 2.577777017107349e-07    3    2   10    2
 -0.001334422145107427    3    2   10    3
 -8.839101675313944e-09    3    2   10    4
 0.004771166855847039    3    2   10    5
 -9.878946027715522e-08    3    2   10   10
 -9.870176700949869e-08    3    2   11    6
 -4.323806107866497e-08    3    2   11    7
 0.002412758215523838    3    2   11    8
 -0.006014278572191026    3    2   11    9
 -1.462285932957315e-07    3    2   11   11
 -4.323816924092554e-08    3    2   12    6
 9.870174702397896e-08    3    2   12    7
 -0.006014278572191026    3    2   12    8
 -0.002412758215523836    3    2   12    9
 -1.462285988146646e-07    3    2   12   12
 0.01480934189141645    3    2   13    1
 5.225800169378023e-07    3    2   13    2
 -0.004188380359914148    3    2   13    3
 -9.176049070077503e-08    3    2   13    4
 -0.005642476442810723    3    2   13    5
 8.230629897805033e-08    3    2   13   10
 -1.413106211701335e-07    3    2   13   13
 -1.921391454085918e-10    3    2   14    1
 0.02745085305652665    3    2   14    2
 -1.278467586891307e-07    3    2   14    3
 -0.007694268657837484    3    2   14    4
 -3.151285309442011e-08    3    2   14    5
 -0.0006835928601889582    3    2   14   10
 -0.004773044744424229    3    2   14   13
 -1.187286210084049e-07    3    2   14   14
 0.003286909838721553    3    2   15    6
 0.004993605585092321    3    2   15    7
 -9.087346286659759e-08    3    2   15    8
 6.398857655398309e-08    3    2   15    9
 0.007012586622987746    3    2   15   11
 -0.004552188562850425    3    2   15   12
 -1.428827005945472e-07    3    2   15   15
 0.004993605585092312    3    2   16    6
 -0.003286909838721546    3    2   16    7
 6.398853652711185e-08    3    2   16    8
 9.087337433753758e-08    3    2   16    9
 0.004552188562850419    3    2   16   11
 0.007012586622987754    3    2   16   12
 -1.428826530345213e-07    3    2   16   16
 -1.251489156346588e-10    3    2   17    1
 0.00535419312721291    3    2   17    2
 -1.848400135411123e-08    3    2   17    3