 &FCI NORB=  28,NELEC=14,MS2=0,
  ORBSYM=1,1,1,1,1,1,1,1,1,1,1,1,1,1,1,1,1,1,1,1,1,1,1,1,1,1,1,1,
  ISYM=1,
 &END
 2.248276500856953    1    1    1    1
 -2.598751092384619e-09    1    1    2    1
 2.24840861439561    1    1    2    2
 -0.1905691781329546    1    1    3    1
 1.367770907385185e-10    1    1    3    2
 0.7075868006712828    1    1    3    3
 4.075321896538888e-10    1    1    4    1
 -0.1985028693413673    1    1    4    2
 -3.478292731964872e-10    1    1    4    3
 0.6503790230512689    1    1    4    4
 0.06309193559982323    1    1    5    1
 -3.026139756801775e-11    1    1    5    2
 0.05389936170501362    1    1    5    3
 3.095560885532297e-10    1    1    5    4
 0.6573248966003649    1    1    5    5
 0.6131865549880156    1    1    6    6
 0.6131865549880157    1    1    7    7
 -3.779080221498476e-10    1    1    8    6
 -1.503233659511799e-11    1    1    8    7
 0.6157877343388299    1    1    8    8
 1.503347771790453e-11    1    1    9    6
 -3.779066480320142e-10    1    1    9    7
 0.6157877343388297    1    1    9    9
 -2.376852824632805e-10    1    1   10    1
 0.1094598862636676    1    1   10    2
 2.540989823066053e-10    1    1   10    3
 -0.0889995802558522    1    1   10    4
 2.687340298207497e-10    1    1   10    5
 0.6274343693338689    1    1   10   10
 -7.475614911815916e-11    1    1   11    1
 0.04265915296010345    1    1   11    2
 -5.184723548927461e-11    1    1   11    3
 -0.1233068551538977    1    1   11    4
 -3.315168465266305e-10    1    1   11    5
 -0.2299220188897069    1    1   11   10
 0.6008375425243609    1    1   11   11
 0.1375229106499858    1    1   12    6
 -0.1828007886691326    1    1   12    7
 -1.642356851374021e-10    1    1   12    8
 2.374003946306906e-10    1    1   12    9
 0.6060139718961166    1    1   12   12
 0.1828007886691322    1    1   13    6
 0.1375229106499861    1    1   13    7
 -2.373980605467011e-10    1    1   13    8
 -1.642421296825492e-10    1    1   13    9
 0.6060139718961162    1    1   13   13
 0.0821300637546175    1    1   14    1
 -4.546559899805359e-11    1    1   14    2
 -0.02477814697662522    1    1   14    3
 1.791908275407261e-10    1    1   14    4
 0.2215607012213661    1    1   14    5
 5.810266785928608e-11    1    1   14   10
 -3.686199089025788e-10    1    1   14   11
 0.5176884784443899    1    1   14   14
 -0.147107146880254    1    1   15    1
 1.051798498015281e-10    1    1   15    2
 0.1779739984378641    1    1   15    3
 -1.899404802278154e-10    1    1   15    4
 0.003833823681329461    1    1   15    5
 1.246143314405368e-10    1    1   15   10
 1.428384147073025e-11    1    1   15   11
 0.001305515397589833    1    1   15   14
 0.5505778628947567    1    1   15   15
 1.657045130450119e-10    1    1   16    6
 -1.990395213013682e-10    1    1   16    7
 -0.1491588939313927    1    1   16    8
 0.1943918159864107    1    1   16    9
 3.978617396475925e-10    1    1   16   12
 1.961768508057515e-11    1    1   16   13
 0.5833742959599639    1    1   16   16
 1.990418584075712e-10    1    1   17    6
 1.656983002413029e-10    1    1   17    7
 -0.1943918159864109    1    1   17    8
 -0.1491588939313926    1    1   17    9
 -1.961833842080429e-11    1    1   17   12
 3.978624351632862e-10    1    1   17   13
 0.5833742959599645    1    1   17   17
 -3.097749078362626e-10    1    1   18    1
 0.1480319042315768    1    1   18    2
 2.062981729888946e-10    1    1   18    3
 -0.1475950899728806    1    1   18    4
 -8.164584459902091e-12    1    1   18    5
 0.1406981230186419    1    1   18   10
 -0.01081088359838916    1    1   18   11
 -5.962495427946912e-11    1    1   18   14
 2.622112717926006e-10    1    1   18   15
 0.5190244581572675    1    1   18   18
 0.009041109959311811    1    1   19    6
 0.01065011624360424    1    1   19    7
 8.674576877122642e-11    1    1   19    8
 9.431339400862299e-11    1    1   19    9
 0.007319509066850562    1    1   19   12
 -0.03243475593812344    1    1   19   13
 4.673586821365983e-12    1    1   19   16
 -2.679713699202391e-11    1    1   19   17
 0.5739975099600122    1    1   19   19
 0.01065011624360386    1    1   20    6
 -0.009041109959311672    1    1   20    7
 9.431316144725699e-11    1    1   20    8
 -8.674564690690223e-11    1    1   20    9
 -0.03243475593812363    1    1   20   12
 -0.007319509066850798    1    1   20   13
 -2.679732130639323e-11    1    1   20   16
 -4.674450063135716e-12    1    1   20   17
 0.573997509960012    1    1   20   20
 0.5550344713195328    1    1   21   21
 0.5550344713195325    1    1   22   22
 -2.963590206572775e-10    1    1   23   21
 0.5552882031245466    1    1   23   23
 -2.963587916737787e-10    1    1   24   22
 0.5552882031245471    1    1   24   24
 0.06193148734675355    1    1   25    1
 -4.784000539465039e-11    1    1   25    2
 -0.05108869553294497    1    1   25    3
 5.265239156129753e-11    1    1   25    4
 -0.03121766274411976    1    1   25    5
 -2.507705492912904e-10    1    1   25   10
 1.731746343547336e-10    1    1   25   11
 -0.01316799931683892    1    1   25   14
 -0.02163890786271234    1    1   25   15
 -5.133881080671143e-11    1    1   25   18
 0.6365649637348586    1    1   25   25
 3.882023175139082e-12    1    1   26    6
 2.941974355102905e-12    1    1   26    7
 -0.006150595611649373    1    1   26    8
 -0.004287328349982484    1    1   26    9
 -4.481384013876877e-12    1    1   26   13
 0.001525623196922339    1    1   26   16
 0.03333194062886569    1    1   26   17
 2.719032152209699e-10    1    1   26   19
 6.035229260792363e-11    1    1   26   20
 0.5706735434152445    1    1   26   26
 2.941921012356019e-12    1    1   27    6
 -3.881962893498292e-12    1    1   27    7
 -0.004287328349982673    1    1   27    8
 0.006150595611649197    1    1   27    9
 -4.481689325208649e-12    1    1   27   12
 0.03333194062886575    1    1   27   16
 -0.001525623196922284    1    1   27   17
 -6.035208444110651e-11    1    1   27   19
 2.719034442044688e-10    1    1   27   20
 0.570673543415245    1    1   27   27
 4.477689087093177e-11    1    1   28    1
 -0.01804281858980271    1    1   28    2
 -5.320950104137356e-11    1    1   28    3
 -0.01991155740781936    1    1   28    4
 -9.050978369562479e-11    1    1   28    5
 -0.05454185693765193    1    1   28   10
 0.1183945688946233    1    1   28   11
 -1.444370699432707e-10    1    1   28   14
 -1.040070807256654e-10    1    1   28   15
 -0.0801975221378481    1    1   28   18
 -1.983288810958328e-10    1    1   28   25
 0.5906291623908123    1    1   28   28
 -2.59875118597583e-09    2    1    1    1
 1.87797016632388    2    1    2    1
 2.598567070918019e-09    2    1    2    2
 1.343851414425511e-10    2    1    3    1
 -0.1940458270702986    2    1    3    2
 -0.1952918780270174    2    1    4    1
 -1.351612568425937e-10    2    1    4    2
 0.2514061144360158    2    1    4    3
 -3.687049608318301e-11    2    1    5    1
 0.05353859642044059    2    1    5    2
 -0.2236774771065341    2    1    5    4
 0.2730691441188772    2    1    8    6
 0.01086254847097872    2    1    8    7
 -0.01086254847097861    2    1    9    6
 0.2730691441188772    2    1    9    7
 0.1170300744319172    2    1   10    1
 8.094933523577444e-11    2    1   10    2
 -0.1835904301559636    2    1   10    3
 -0.1941489740233633    2    1   10    5
 0.03243006613203855    2    1   11    1
 2.210847230911154e-11    2    1   11    2
 0.03760822155974945    2    1   11    3
 0.2389549460761722    2    1   11    5
 -2.214589893845959e-12    2    1   11   11
 0.1184416152440824    2    1   12    8
 -0.1712012466589245    2    1   12    9
 -1.546004214303062e-12    2    1   12   12
 0.1712012466589244    2    1   13    8
 0.1184416152440827    2    1   13    9
 -1.549409158002016e-12    2    1   13   13
 -5.110043944648698e-11    2    1   14    1
 0.07404788058808205    2    1   14    2
 -0.1297442299503388    2    1   14    4
 1.0627551356307e-12    2    1   14    5
 -0.04271040877562294    2    1   14   10
 0.2666499166955611    2    1   14   11
 2.209494523106037e-12    2    1   14   14
 1.035162605636962e-10    2    1   15    1
 -0.1495319037859005    2    1   15    2
 0.1373117062568806    2    1   15    4
 -0.08998596184508406    2    1   15   10
 -0.01033522729715916    2    1   15   11
 -0.120004337624994    2    1   16    6
 0.1441492437691095    2    1   16    7
 -0.2876020110324234    2    1   16   12
 -0.01418122663623174    2    1   16   13
 1.619062116363715e-12    2    1   16   16
 -0.1441492437691095    2    1   17    6
 -0.1200043376249938    2    1   17    7
 0.01418122663623168    2    1   17   12
 -0.2876020110324233    2    1   17   13
 1.62239231109914e-12    2    1   17   17
 0.1499090778958997    2    1   18    1
 1.037920611883882e-10    2    1   18    2
 -0.1490859113523321    2    1   18    3
 0.006017624634337885    2    1   18    5
 0.04306703321396152    2    1   18   14
 -0.189512756208729    2    1   18   15
 -0.06268602984298731    2    1   19    8
 -0.06815471512291388    2    1   19    9
 -0.003392224008553388    2    1   19   16
 0.01944866742635121    2    1   19   17
 -0.06815471512291424    2    1   20    8
 0.06268602984298759    2    1   20    9
 0.01944866742635171    2    1   20   16
 0.003392224008553673    2    1   20   17
 0.2141693343736825    2    1   23   21
 0.0003163053061295898    2    1   23   22
 -0.0003163053061296106    2    1   24   21
 0.2141693343736825    2    1   24   22
 -4.534179182423071e-11    2    1   25    1
 0.06554897511682697    2    1   25    2
 -0.03808346539380558    2    1   25    4
 0.1812538144213752    2    1   25   10
 -0.1251497362320595    2    1   25   11
 0.0371339897821118    2    1   25   18
 -0.002804230611828087    2    1   26    6
 -0.002125193918964176    2    1   26    7
 -1.169081489546921e-05    2    1   26   12
 0.003311906469685157    2    1   26   13
 -0.1964965108394696    2    1   26   19
 -0.0436147480464317    2    1   26   20
 -0.002125193918964443    2    1   27    6
 0.002804230611828165    2    1   27    7
 0.003311906469684808    2    1   27   12
 1.169081489519426e-05    2    1   27   13
 0.04361474804643174    2    1   27   19
 -0.1964965108394696    2    1   27   20
 -0.02332461185912619    2    1   28    1
 -1.611508099001995e-11    2    1   28    2
 0.03844758275590182    2    1   28    3
 0.06540784579303555    2    1   28    5
 0.104738911466113    2    1   28   14
 0.075114218369027    2    1   28   15
 0.1433249971292603    2    1   28   25
 2.248408614395611    2    2    1    1
 2.598567125174291e-09    2    2    2    1
 2.248540745526048    2    2    2    2
 -0.190590383507736    2    2    3    1
 -4.002630928659707e-10    2    2    3    2
 0.7075791543683755    2    2    3    3
 -1.329300050110762e-10    2    2    4    1
 -0.1985197562358869    2    2    4    2
 3.479417652434147e-10    2    2    4    3
 0.6503917792494671    2    2    4    4
 0.06309023346258001    2    2    5    1
 1.179065499680681e-10    2    2    5    2
 0.05388566868279947    2    2    5    3
 -3.094756383667865e-10    2    2    5    4
 0.6573334631982888    2    2    5    5
 0.6131857341851688    2    2    6    6
 0.6131857341851689    2    2    7    7
 3.778158636641438e-10    2    2    8    6
 1.502998094905783e-11    2    2    8    7
 0.6157913726334645    2    2    8    8
 -1.502884654832476e-11    2    2    9    6
 3.778172878721175e-10    2    2    9    7
 0.6157913726334642    2    2    9    9
 8.61853924104337e-11    2    2   10    1
 0.1094776896210892    2    2   10    2
 -2.539911796509142e-10    2    2   10    3
 -0.08899266710976644    2    2   10    4
 -2.685766366250508e-10    2    2   10    5
 0.6274331179414762    2    2   10   10
 1.49985658116393e-11    2    2   11    1
 0.04265350899396393    2    2   11    2
 5.223411850621695e-11    2    2   11    3
 -0.1233190168238058    2    2   11    4
 3.297955628207838e-10    2    2   11    5
 -0.2299230119000865    2    2   11   10
 0.6008506704490384    2    2   11   11
 0.1375255177657388    2    2   12    6
 -0.1828042541485464    2    2   12    7
 1.635536525277596e-10    2    2   12    8
 -2.364022400145466e-10    2    2   12    9
 0.6060185505576368    2    2   12   12
 0.182804254148546    2    2   13    6
 0.137525517765739    2    2   13    7
 2.364045811051926e-10    2    2   13    8
 1.635472582218306e-10    2    2   13    9
 0.6060185505576361    2    2   13   13
 0.08213047111825098    2    2   14    1
 1.594635475843874e-10    2    2   14    2
 -0.02478412179143686    2    2   14    3
 -1.798787620591047e-10    2    2   14    4
 0.2215675945380845    2    2   14    5
 -6.009933935062495e-11    2    2   14   10
 3.693384383052223e-10    2    2   14   11
 0.517698406879929    2    2   14   14
 -0.1471236745853429    2    2   15    1
 -3.086641777268933e-10    2    2   15    2
 0.1779748290023627    2    2   15    3
 1.900722205495919e-10    2    2   15    4
 0.003824520665160641    2    2   15    5
 -1.244236267836096e-10    2    2   15   10
 -1.431916391014809e-11    2    2   15   11
 0.001298208052326295    2    2   15   14
 0.550575283313531    2    2   15   15
 -1.664097466595738e-10    2    2   16    6
 1.998962243562191e-10    2    2   16    7
 -0.149161500885203    2    2   16    8
 0.1943952135074838    2    2   16    9
 -3.980826128804904e-10    2    2   16   12
 -1.96291405438892e-11    2    2   16   13
 0.5833798178257934    2    2   16   16
 -1.998938780342976e-10    2    2   17    6
 -1.664159515486069e-10    2    2   17    7
 -0.194395213507484    2    2   17    8
 -0.1491615008852029    2    2   17    9
 1.962852211497002e-11    2    2   17   12
 -3.980818417959053e-10    2    2   17   13
 0.583379817825794    2    2   17   17
 1.050905750665982e-10    2    2   18    1
 0.1480480215075761    2    2   18    2
 -2.062997199285543e-10    2    2   18    3
 -0.1476005694616317    2    2   18    4
 8.48911739514957e-12    2    2   18    5
 0.1406945587230435    2    2   18   10
 -0.01080422897799577    2    2   18   11
 5.956373068383147e-11    2    2   18   14
 -2.622684049102819e-10    2    2   18   15
 0.5190243601021405    2    2   18   18
 0.009034642102581807    2    2   19    6
 0.01064249733106677    2    2   19    7
 -8.673898448455231e-11    2    2   19    8
 -9.430604875574483e-11    2    2   19    9
 0.007320638341670188    2    2   19   12
 -0.0324397600651526    2    2   19   13
 -4.714459725385645e-12    2    2   19   16
 2.702746186578064e-11    2    2   19   17
 0.5739946313412461    2    2   19   19
 0.0106424973310664    2    2   20    6
 -0.009034642102581663    2    2   20    7
 -9.430626071726955e-11    2    2   20    8
 8.67390957236952e-11    2    2   20    9
 -0.03243976006515277    2    2   20   12
 -0.007320638341670418    2    2   20   13
 2.702728492398609e-11    2    2   20   16
 4.713607542478071e-12    2    2   20   17
 0.573994631341246    2    2   20   20
 0.555031589635677    2    2   21   21
 0.5550315896356767    2    2   22   22
 2.963587431015213e-10    2    2   23   21
 0.5552864348232553    2    2   23   23
 2.963588818793994e-10    2    2   24   22
 0.5552864348232558    2    2   24   24
 0.06194246680357342    2    2   25    1
 1.335756900054663e-10    2    2   25    2
 -0.0510942203755138    2    2   25    3
 -5.274430414994868e-11    2    2   25    4
 -0.03123063595432912    2    2   25    5
 2.508529972286566e-10    2    2   25   10
 -1.731794846415724e-10    2    2   25   11
 -0.01317414842566703    2    2   25   14
 -0.02163915905853206    2    2   25   15
 5.142974631236474e-11    2    2   25   18
 0.6365642308383819    2    2   25   25
 -3.878700312320849e-12    2    2   26    6
 -2.939521022427005e-12    2    2   26    7
 -0.006143685653082218    2    2   26    8
 -0.00428251170081015    2    2   26    9
 4.684390028653063e-12    2    2   26   13
 0.001525404080079965    2    2   26   16
 0.03332715334613728    2    2   26   17
 -2.719046793275837e-10    2    2   26   19
 -6.035236199686267e-11    2    2   26   20
 0.5706732042612712    2    2   26   26
 -2.939591278727782e-12    2    2   27    6
 3.878782711685957e-12    2    2   27    7
 -0.004282511700810334    2    2   27    8
 0.00614368565308205    2    2   27    9
 4.684103799279526e-12    2    2   27   12
 0.0333271533461373    2    2   27   16
 -0.001525404080079868    2    2   27   17
 6.035262567483102e-11    2    2   27   19
 -2.719044434051909e-10    2    2   27   20
 0.5706732042612719    2    2   27   27
 -1.97702239202889e-11    2    2   28    1
 -0.01804892602926599    2    2   28    2
 5.319510804069338e-11    2    2   28    3
 -0.01991003890591684    2    2   28    4
 9.050739411403663e-11    2    2   28    5
 -0.0545345762790438    2    2   28   10
 0.118390134451037    2    2   28   11
 1.45430223419396e-10    2    2   28   14
 1.038731808900017e-10    2    2   28   15
 -0.08019494921304654    2    2   28   18
 1.983253006265784e-10    2    2   28   25
 0.5906292786067788    2    2   28   28
 -0.1905691781329547    3    1    1    1
 1.343851539723389e-10    3    1    2    1
 -0.1905903835077359    3    1    2    2
 0.03010612509720851    3    1    3    1
 -0.002204661509764839    3    1    3    3
 -3.908411083447773e-11    3    1    4    1
 0.02820880944499142    3    1    4    2
 5.784503017097591e-12    3    1    4    3
 -0.01050508598165501    3    1    4    4
 -0.004584136183099687    3    1    5    1
 0.005965006402602616    3    1    5    3
 -6.494560741792093e-12    3    1    5    4
 -0.006643002639928407    3    1    5    5
 -0.002398504933935445    3    1    6    6
 -0.002398504933935446    3    1    7    7
 4.178084907126983e-12    3    1    8    6
 -0.004550948809611275    3    1    8    8
 4.178049629898796e-12    3    1    9    7
 -0.004550948809611278    3    1    9    9
 2.894120775709555e-11    3    1   10    1
 -0.02098018351688022    3    1   10    2
 -1.923652541782356e-12    3    1   10    3
 -0.0004607702558137646    3    1   10    4
 -2.569833316415013e-12    3    1   10    5
 -0.002972293605525862    3    1   10   10
 -0.0003421281960017903    3    1   11    2
 -1.619799407722323e-12    3    1   11    3
 0.007218351429410643    3    1   11    4
 6.227502373371344e-12    3    1   11    5
 0.002736311302811368    3    1   11   10
 -0.009905959492415651    3    1   11   11
 -0.003204709436084553    3    1   12    6
 0.004259824123870277    3    1   12    7
 2.688523013632117e-12    3    1   12    8
 -3.886257973110087e-12    3    1   12    9
 -0.007050530979409106    3    1   12   12
 -0.004259824123870276    3    1   13    6
 -0.003204709436084557    3    1   13    7
 3.886203186172026e-12    3    1   13    8
 2.688663679970151e-12    3    1   13    9
 -0.007050530979409105    3    1   13   13
 -0.007546766516492748    3    1   14    1
 0.003639027779949471    3    1   14    3
 -4.946828787799704e-12    3    1   14    4
 -0.006395659776228904    3    1   14    5
 -1.106868957113146e-12    3    1   14   10
 7.044982652804066e-12    3    1   14   11
 -0.007752715635482586    3    1   14   14
 0.02346075704051107    3    1   15    1
 -0.004141659235505877    3    1   15    3
 4.509623358807803e-12    3    1   15    4
 0.004084171045260462    3    1   15    5
 -1.400109059723417e-12    3    1   15   10
 -1.777268219746442e-12    3    1   15   11
 0.003732891629878479    3    1   15   14
 -0.002185733330439824    3    1   15   15
 -2.595439393461053e-12    3    1   16    6
 3.117523197194516e-12    3    1   16    7
 0.003417905690922943    3    1   16    8
 -0.004454396761847822    3    1   16    9
 -6.362899959797431e-12    3    1   16   12
 -0.007246764078005427    3    1   16   16
 -3.117580104256045e-12    3    1   17    6
 -2.595274030606893e-12    3    1   17    7
 0.004454396761847826    3    1   17    8
 0.00341790569092294    3    1   17    9
 -6.362918289590409e-12    3    1   17   13
 -0.00724676407800543    3    1   17   17
 3.194199215992096e-11    3    1   18    1
 -0.02310090037008491    3    1   18    2
 -3.364699898692425e-12    3    1   18    3
 0.005697675665679302    3    1   18    4
 2.229909939158502e-12    3    1   18    5
 -0.001130678842910813    3    1   18   10
 -0.002839589852826469    3    1   18   11
 2.293219595150793e-12    3    1   18   14
 -3.407014846976272e-12    3    1   18   15
 -0.003014764525607009    3    1   18   18
 0.002920970032141669    3    1   19    6
 0.003440802127879564    3    1   19    7
 -1.869484478179517e-12    3    1   19    8
 -2.032580241668837e-12    3    1   19    9
 -0.0006749819260846992    3    1   19   12
 0.00299103038677179    3    1   19   13
 1.804516739840504e-12    3    1   19   17
 0.0005446919151401656    3    1   19   19
 0.003440802127879569    3    1   20    6
 -0.002920970032141672    3    1   20    7
 -2.03257168176563e-12    3    1   20    8
 1.86947514726457e-12    3    1   20    9
 0.0029910303867718    3    1   20   12
 0.0006749819260847008    3    1   20   13
 1.804534810017884e-12    3    1   20   16
 0.0005446919151401563    3    1   20   20
 0.0006770345445695422    3    1   21   21
 0.0006770345445695142    3    1   22   22
 1.492426611438523e-12    3    1   23   21
 0.0002435743022145082    3    1   23   23
 1.49242421941748e-12    3    1   24   22
 0.0002435743022144761    3    1   24   24
 -0.01228421206847285    3    1   25    1
 0.003977655761711803    3    1   25    3
 0.005643801862206724    3    1   25    5
 4.040934272514138e-12    3    1   25   10
 -3.735546960192786e-12    3    1   25   11
 0.003330605988337906    3    1   25   14
 0.001763154426118024    3    1   25   15
 1.121812941714086e-12    3    1   25   18
 -0.002034128624253217    3    1   25   25
 1.400101721029962e-12    3    1   26    6
 1.061067264935167e-12    3    1   26    7
 -0.002888101098209392    3    1   26    8
 -0.002013177015331187    3    1   26    9
 1.358964980646791e-12    3    1   26   13
 0.0001013506693375553    3    1   26   16
 0.002214317729220725    3    1   26   17
 -1.845572177342717e-12    3    1   26   19
 -6.234306035222514e-05    3    1   26   26
 1.061086197815604e-12    3    1   27    6
 -1.40010330667564e-12    3    1   27    7
 -0.002013177015331182    3    1   27    8
 0.002888101098209391    3    1   27    9
 1.358950868230856e-12    3    1   27   12
 0.002214317729220721    3    1   27   16
 -0.0001013506693375582    3    1   27   17
 -1.845569189010479e-12    3    1   27   20
 -6.234306035221985e-05    3    1   27   27
 -8.257550337609812e-12    3    1   28    1
 0.00601633879281229    3    1   28    2
 -0.0002060473836599591    3    1   28    4
 -0.001186058112974266    3    1   28   10
 -0.0002061054947732114    3    1   28   11
 1.194752304901903e-12    3    1   28   14
 -0.0005582263576893971    3    1   28   18
 -0.001070265491853706    3    1   28   28
 1.367771410991006e-10    3    2    1    1
 -0.1940458270702986    3    2    2    1
 -4.002629546523224e-10    3    2    2    2
 0.03004585433074275    3    2    3    2
 -1.509598723618754e-12    3    2    3    3
 0.0282710674684693    3    2    4    1
 3.907025951009677e-11    3    2    4    2
 -0.00834165461894873    3    2    4    3
 -7.25722184000729e-12    3    2    4    4
 -0.004764400445796377    3    2    5    2
 4.130436166433892e-12    3    2    5    3
 0.009393568139970368    3    2    5    4
 -4.60529411914351e-12    3    2    5    5
 -1.651687223406736e-12    3    2    6    6
 -1.651742702370716e-12    3    2    7    7
 -0.00603272884282542    3    2    8    6
 -0.0002399788144461108    3    2    8    7
 -3.147462264505973e-12    3    2    8    8
 0.0002399788144461095    3    2    9    6
 -0.00603272884282542    3    2    9    7
 -3.147480505784008e-12    3    2    9    9
 -0.02083493027195749    3    2   10    1
 -2.892087292280784e-11    3    2   10    2
 0.002772169953145536    3    2   10    3
 0.003712533084896321    3    2   10    5
 -2.052058440435e-12    3    2   10   10
 -0.0005390420794873235    3    2   11    1
 0.00231545334177212    3    2   11    3
 4.956350818790547e-12    3    2   11    4
 -0.00896292306821953    3    2   11    5
 1.884785601517173e-12    3    2   11   10
 -6.763968888028743e-12    3    2   11   11
 -2.204193567305422e-12    3    2   12    6
 2.929786462399367e-12    3    2   12    7
 -0.003871305467766067    3    2   12    8
 0.005595772405781797    3    2   12    9
 -4.823786457623137e-12    3    2   12   12
 -2.929853764249224e-12    3    2   13    6
 -2.204088104080192e-12    3    2   13    7
 -0.005595772405781798    3    2   13    8
 -0.003871305467766075    3    2   13    9
 -4.823677912045013e-12    3    2   13   13
 -0.007702513994953808    3    2   14    2
 2.523441262601588e-12    3    2   14    3
 0.007185155328547701    3    2   14    4
 -4.463622559677111e-12    3    2   14    5
 0.001615243749038576    3    2   14   10
 -0.01019026720615798    3    2   14   11
 -5.445494397201753e-12    3    2   14   14
 0.02341371932521665    3    2   15    2
 -2.856434108816359e-12    3    2   15    3
 -0.006511234909806676    3    2   15    4
 2.83260911674763e-12    3    2   15    5
 0.002016229383689861    3    2   15   10
 0.002549555419967507    3    2   15   11
 2.594393931187444e-12    3    2   15   14
 -1.505791110832828e-12    3    2   15   15
 0.003759901867265853    3    2   16    6
 -0.00451639516986553    3    2   16    7
 2.374505436771187e-12    3    2   16    8
 -3.094721493770904e-12    3    2   16    9
 0.00919125432044122    3    2   16   12
 0.0004532070555470715    3    2   16   13
 -5.060951553568724e-12    3    2   16   16
 0.004516395169865529    3    2   17    6
 0.003759901867265848    3    2   17    7
 3.094646058710688e-12    3    2   17    8
 2.374671743220051e-12    3    2   17    9
 -0.0004532070555470701    3    2   17   12
 0.009191254320441218    3    2   17   13
 -5.061061874951422e-12    3    2   17   17
 -0.02306551441671697    3    2   18    1
 -3.19412214263049e-11    3    2   18    2
 0.004856477254280163    3    2   18    3
 3.942846677728711e-12    3    2   18    4
 -0.003234150215202197    3    2   18    5
 -1.953625492105769e-12    3    2   18   11
 -0.003335241639453933    3    2   18   14
 0.004921759226633119    3    2   18   15
 -2.087961944878173e-12    3    2   18   18
 2.020228267036713e-12    3    2   19    6
 2.379768049084346e-12    3    2   19    7
 0.002702842424512122    3    2   19    8
 0.002938636502042842    3    2   19    9
 2.062453537083698e-12    3    2   19   13
 0.0004569648604065334    3    2   19   16
 -0.002619920610539473    3    2   19   17
 2.379747596626802e-12    3    2   20    6
 -2.020228632954946e-12    3    2   20    7
 0.002938636502042851    3    2   20    8
 -0.002702842424512127    3    2   20    9
 2.062499625840424e-12    3    2   20   12
 -0.002619920610539486    3    2   20   16
 -0.000456964860406542    3    2   20   17
 -0.002156661192550389    3    2   23   21
 -3.185158980480152e-06    3    2   23   22
 3.185158980514738e-06    3    2   24   21
 -0.002156661192550415    3    2   24   22
 -0.01223186944409704    3    2   25    2
 2.750110550528082e-12    3    2   25    3
 -0.0001884473832535126    3    2   25    4
 3.904159317342192e-12    3    2   25    5
 -0.005839345736304386    3    2   25   10
 0.00537935155013885    3    2   25   11
 2.327441109848186e-12    3    2   25   14
 1.216769523679218e-12    3    2   25   15
 -0.001619170467756382    3    2   25   18
 -1.405973211118794e-12    3    2   25   25
 -0.002024547505433968    3    2   26    6
 -0.001534308922046108    3    2   26    7
 -2.000390010023024e-12    3    2   26    8
 -1.394382502054058e-12    3    2   26    9
 6.911930953092605e-06    3    2   26   12
 -0.001958090094358198    3    2   26   13
 1.539125714695327e-12    3    2   26   17
 0.002668082231731681    3    2   26   19
 0.0005922127258494005    3    2   26   20
 -0.001534308922046102    3    2   27    6
 0.002024547505433968    3    2   27    7
 -1.394385839363871e-12    3    2   27    8
 2.000388704745252e-12    3    2   27    9
 -0.001958090094358191    3    2   27   12
 -6.911930953083301e-06    3    2   27   13
 1.539113641087697e-12    3    2   27   16
 -0.0005922127258494014    3    2   27   19
 0.002668082231731681    3    2   27   20
 0.005911872383914025    3    2   28    1
 8.248270621370832e-12    3    2   28    2
 2.049005282577837e-05    3    2   28    3
 0.0003049912820207265    3    2   28    5
 -0.001724486696489283    3    2   28   14
 -0.0007282919484833967    3    2   28   15
 -0.001244760402302911    3    2   28   25
 0.7075868006712827    3    3    1    1
 0.7075791543683755    3    3    2    2
 -0.002204661509764847    3    3    3    1
 -1.509601837523626e-12    3    3    3    2
 0.6397268853980346    3    3    3    3
 9.196926845374373e-12    3    3    4    1
 -0.0132609255676657    3    3    4    2
 0.494543899811149    3    3    4    4
 0.01868523272746858    3    3    5    1
 1.293503189758391e-11    3    3    5    2
 0.1065825907503961    3    3    5    3
 0.5257820911037077    3    3    5    5
 0.5344782485985026    3    3    6    6
 0.5344782485985026    3    3    7    7
 0.5029634933402289    3    3    8    8
 0.5029634933402285    3    3    9    9
 6.534833082511493e-12    3    3   10    1
 -0.009458815551182102    3    3   10    2
 -0.08774339016764493    3    3   10    4
 0.5288887071172131    3    3   10   10
 -1.386674649533074e-11    3    3   11    1
 0.01994028086801833    3    3   11    2
 -0.03446585569201257    3    3   11    4
 -0.1513870784636753    3    3   11   10
 0.4335033751518092    3    3   11   11
 0.06821390781228702    3    3   12    6
 -0.09067257293605628    3    3   12    7
 0.4704533978631857    3    3   12   12
 0.09067257293605596    3    3   13    6
 0.06821390781228724    3    3   13    7
 0.4704533978631853    3    3   13   13
 0.01730407767831254    3    3   14    1
 1.205394412621052e-11    3    3   14    2
 0.004842802503352586    3    3   14    3
 0.1161972217209137    3    3   14    5
 0.396363093234846    3    3   14   14