 &FCI NORB=  28,NELEC=14,MS2=0,
  ORBSYM=1,1,1,1,1,1,1,1,1,1,1,1,1,1,1,1,1,1,1,1,1,1,1,1,1,1,1,1,
  ISYM=1,
 &END
 2.297314885666734    1    1    1    1
 -3.7846504494796e-12    1    1    2    1
 2.298105269106729    1    1    2    2
 -0.1972485988356796    1    1    3    1
 0.8266121738484076    1    1    3    3
 -0.1860320617542825    1    1    4    2
 0.6642033283997598    1    1    4    4
 -0.07245514523215682    1    1    5    1
 -0.09418160905349177    1    1    5    3
 0.6917933985457239    1    1    5    5
 0.6782868402231155    1    1    6    6
 0.6782868402231134    1    1    7    7
 0.6177238074261726    1    1    8    8
 0.6177238074261716    1    1    9    9
 -0.1178904428782582    1    1   10    2
 0.1351944143195322    1    1   10    4
 0.4236134628387233    1    1   10   10
 0.01083110821225119    1    1   11    1
 -0.1025241629763987    1    1   11    3
 0.1666561076827425    1    1   11    5
 0.4955299642817743    1    1   11   11
 0.224468262448088    1    1   12    6
 -0.07436446342779816    1    1   12    7
 0.5904618894662483    1    1   12   12
 0.0743644634277983    1    1   13    6
 0.2244682624480875    1    1   13    7
 0.5904618894662483    1    1   13   13
 -0.1634733375189169    1    1   14    1
 0.1388608346757123    1    1   14    3
 0.1564171581867222    1    1   14    5
 -0.008904708016120534    1    1   14   11
 0.5716545103750956    1    1   14   14
 -0.006356576844577807    1    1   15    8
 0.2632796328663902    1    1   15    9
 0.6296100455065275    1    1   15   15
 -0.2632796328663903    1    1   16    8
 -0.006356576844577907    1    1   16    9
 0.6296100455065272    1    1   16   16
 -0.005418820520234322    1    1   17    2
 -0.1055557345538569    1    1   17    4
 0.1168638456430835    1    1   17   10
 0.7735672394359345    1    1   17   17
 -0.1663676078494664    1    1   18    2
 0.1468146701947144    1    1   18    4
 0.1632701635292647    1    1   18   10
 0.1127850818307217    1    1   18   17
 0.5814133386842574    1    1   18   18
 0.5950397729476755    1    1   19   19
 0.5950397729476767    1    1   20   20
 0.01309057208521868    1    1   21    6
 -0.005554303019345285    1    1   21    7
 0.0351347397704525    1    1   21   12
 -0.002865025801177922    1    1   21   13
 0.639488011787673    1    1   21   21
 0.005554303019345564    1    1   22    6
 0.0130905720852183    1    1   22    7
 0.00286502580117797    1    1   22   12
 0.03513473977045259    1    1   22   13
 0.6394880117876742    1    1   22   22
 0.5871208569983521    1    1   23   23
 0.5871208569983516    1    1   24   24
 0.03274153293686398    1    1   25    1
 -0.0167801799021529    1    1   25    3
 -0.006921380250361668    1    1   25    5
 -0.03908002314453967    1    1   25   11
 0.01168682925800097    1    1   25   14
 0.6364106743321056    1    1   25   25
 0.03943493549275529    1    1   26    8
 -0.01526635465419838    1    1   26    9
 -0.03493833935324133    1    1   26   15
 -0.08415798417864219    1    1   26   16
 0.602597055474155    1    1   26   26
 -0.0152663546541978    1    1   27    8
 -0.03943493549275551    1    1   27    9
 -0.08415798417864215    1    1   27   15
 0.03493833935324085    1    1   27   16
 0.6025970554741538    1    1   27   27
 0.06561328223605718    1    1   28    2
 0.02981539457618574    1    1   28    4
 -0.02849223851627711    1    1   28   10
 -0.2381596293710863    1    1   28   17
 -0.1423857813466262    1    1   28   18
 0.7819686108410138    1    1   28   28
 -3.784910095571119e-12    2    1    1    1
 1.825778856524675    2    1    2    1
 3.784268715447195e-12    2    1    2    2
 -0.206897365745879    2    1    3    2
 -0.1786523687427354    2    1    4    1
 0.1733816866086106    2    1    4    3
 -0.05640397509868902    2    1    5    2
 0.2520350261213374    2    1    5    4
 0.1298368699196932    2    1    8    6
 -0.1998778724079937    2    1    8    7
 -0.1998778724079938    2    1    9    6
 -0.1298368699196926    2    1    9    7
 -0.1198119600473856    2    1   10    1
 0.134825533569995    2    1   10    3
 -0.01176581554028968    2    1   10    5
 0.02182387268872291    2    1   11    2
 0.03170080615990824    2    1   11    4
 0.04105123618547419    2    1   11   10
 0.1151022083217579    2    1   12    8
 -0.09209362967915395    2    1   12    9
 -0.09209362967915416    2    1   13    8
 -0.1151022083217578    2    1   13    9
 -0.1576752483549106    2    1   14    2
 0.1834763478911844    2    1   14    4
 0.09951888366649012    2    1   14   10
 -0.1690080046750309    2    1   15    6
 -0.1040716959681805    2    1   15    7
 -0.1589539268613004    2    1   15   12
 -0.1891221297939972    2    1   15   13
 -0.1040716959681806    2    1   16    6
 0.1690080046750305    2    1   16    7
 -0.189122129793997    2    1   16   12
 0.1589539268613006    2    1   16   13
 -0.02343128677177077    2    1   17    1
 0.1395960150126896    2    1   17    3
 -0.2488381871852697    2    1   17    5
 -0.137990326134594    2    1   17   11
 -0.1542951479986149    2    1   17   14
 -0.1698584923343833    2    1   18    1
 0.1801584440731651    2    1   18    3
 -0.01056621429256143    2    1   18    5
 -0.04483996603811299    2    1   18   11
 0.1476313705963606    2    1   18   14
 0.1123553884531954    2    1   21    8
 -0.07578922749979675    2    1   21    9
 -0.05438206863594897    2    1   21   15
 -0.07656638421223397    2    1   21   16
 -0.07578922749979662    2    1   22    8
 -0.1123553884531954    2    1   22    9
 -0.07656638421223409    2    1   22   15
 0.05438206863594864    2    1   22   16
 -0.1716896667680262    2    1   23   19
 -0.05286793105731243    2    1   23   20
 -0.05286793105731229    2    1   24   19
 0.1716896667680263    2    1   24   20
 0.03441057873337279    2    1   25    2
 -0.01292140902276338    2    1   25    4
 -0.07611728889199069    2    1   25   10
 -0.159369271142576    2    1   25   17
 -0.07759235077206503    2    1   25   18
 0.03441701297695113    2    1   26    6
 -0.02484993169650268    2    1   26    7
 0.06258687058461536    2    1   26   12
 -0.01973429651761758    2    1   26   13
 -0.1493233128355343    2    1   26   21
 0.03403177829848232    2    1   26   22
 0.02484993169650304    2    1   27    6
 0.03441701297695074    2    1   27    7
 0.01973429651761802    2    1   27   12
 0.06258687058461493    2    1   27   13
 -0.03403177829848195    2    1   27   21
 -0.1493233128355345    2    1   27   22
 0.08251938988929658    2    1   28    1
 -0.1350351575856967    2    1   28    3
 0.1283100284302995    2    1   28    5
 0.1715993756517861    2    1   28   11
 0.008967408307187074    2    1   28   14
 -0.08086943452681158    2    1   28   25
 2.298105269106729    2    2    1    1
 3.784519742131443e-12    2    2    2    1
 2.298896220450267    2    2    2    2
 -0.1973808810878408    2    2    3    1
 0.8265518343274284    2    2    3    3
 -0.1861374251112394    2    2    4    2
 0.6642618618566832    2    2    4    4
 -0.07247955919558581    2    2    5    1
 -0.0941203023187033    2    2    5    3
 0.6918177944336447    2    2    5    5
 0.6782845627074379    2    2    6    6
 0.6782845627074361    2    2    7    7
 0.6177475976290713    2    2    8    8
 0.6177475976290704    2    2    9    9
 -0.1179667069612297    2    2   10    2
 0.1352072248191657    2    2   10    4
 0.4236244555592212    2    2   10   10
 0.01085141957091388    2    2   11    1
 -0.1024973619532548    2    2   11    3
 0.1666472817496205    2    2   11    5
 0.4955178807862375    2    2   11   11
 0.224482108519759    2    2   12    6
 -0.0743690505158754    2    2   12    7
 0.5904791050624437    2    2   12   12
 0.07436905051587556    2    2   13    6
 0.2244821085197586    2    2   13    7
 0.5904791050624439    2    2   13   13
 -0.1635661999381804    2    2   14    1
 0.1388730007307982    2    2   14    3
 0.1564678350260011    2    2   14    5
 -0.008875371794488659    2    2   14   11
 0.5716931429540533    2    2   14   14
 -0.006357281879688819    2    2   15    8
 0.2633088343359435    2    2   15    9
 0.6296503783833305    2    2   15   15
 -0.2633088343359435    2    2   16    8
 -0.00635728187968889    2    2   16    9
 0.6296503783833305    2    2   16   16
 -0.00544580595909134    2    2   17    2
 -0.1055990934941642    2    2   17    4
 0.1168488577142502    2    2   17   10
 0.7736043899500652    2    2   17   17
 -0.166473857597195    2    2   18    2
 0.1468375337028147    2    2   18    4
 0.1632773378211602    2    2   18   10
 0.1127649824812972    2    2   18   17
 0.5814199429078081    2    2   18   18
 0.5950245649234204    2    2   19   19
 0.5950245649234216    2    2   20   20
 0.01313975912590965    2    2   21    6
 -0.00557517298032514    2    2   21    7
 0.03516932286697948    2    2   21   12
 -0.00286784584380474    2    2   21   13
 0.6394761154448165    2    2   21   21
 0.005575172980325424    2    2   22    6
 0.01313975912590925    2    2   22    7
 0.002867845843804787    2    2   22   12
 0.03516932286697963    2    2   22   13
 0.639476115444818    2    2   22   22
 0.5871199925355131    2    2   23   23
 0.5871199925355124    2    2   24   24
 0.03276137469627234    2    2   25    1
 -0.01683199366169268    2    2   25    3
 -0.006876163414393557    2    2   25    5
 -0.03905542571165334    2    2   25   11
 0.01168716885553551    2    2   25   14
 0.6364012260473835    2    2   25   25
 0.03941699409041228    2    2   26    8
 -0.01525940904093085    2    2   26    9
 -0.03493548222997411    2    2   26   15
 -0.08415110206177068    2    2   26   16
 0.6025986946843693    2    2   26   26
 -0.01525940904093034    2    2   27    8
 -0.0394169940904126    2    2   27    9
 -0.08415110206177061    2    2   27   15
 0.03493548222997361    2    2   27   16
 0.602598694684368    2    2   27   27
 0.06567789262238835    2    2   28    2
 0.02981885472665531    2    2   28    4
 -0.02848343366200713    2    2   28   10
 -0.2381610663455988    2    2   28   17
 -0.1423688539396759    2    2   28   18
 0.7819816731730348    2    2   28   28
 -0.1972485988356796    3    1    1    1
 -0.1973808810878408    3    1    2    2
 0.03545604430162658    3    1    3    1
 0.0052232748260935    3    1    3    3
 0.02535484636753043    3    1    4    2
 -0.01290024079833739    3    1    4    4
 0.002749869471290111    3    1    5    1
 -0.008822489347552573    3    1    5    3
 -0.008199949683013843    3    1    5    5
 -0.0001750776482243015    3    1    6    6
 -0.0001750776482242914    3    1    7    7
 -0.004269745047777046    3    1    8    8
 -0.004269745047777037    3    1    9    9
 0.02033238664622465    3    1   10    2
 -0.003108917660570572    3    1   10    4
 -0.002595230801935492    3    1   10   10
 -0.008211611965944617    3    1   11    1
 -0.002559205011886019    3    1   11    3
 -0.0006810400334914898    3    1   11    5
 0.0001953327207994395    3    1   11   11
 -0.003034636145963055    3    1   12    6
 0.001005349648239621    3    1   12    7
 -0.003809286883175948    3    1   12   12
 -0.00100534964823962    3    1   13    6
 -0.003034636145963052    3    1   13    7
 -0.003809286883175962    3    1   13   13
 0.0217835120664825    3    1   14    1
 -0.00398961596990638    3    1   14    3
 -0.01069384922683961    3    1   14    5
 -0.005428770689853227    3    1   14   11
 -0.009438729950431154    3    1   14   14
 0.0001353864485809968    3    1   15    8
 -0.005607498398747954    3    1   15    9
 -0.007906273076275633    3    1   15   15
 0.005607498398747955    3    1   16    8
 0.0001353864485809897    3    1   16    9
 -0.00790627307627563    3    1   16   16
 0.01277703724302525    3    1   17    2
 0.009914506440839195    3    1   17    4
 0.002582322775430859    3    1   17   10
 -0.0108964314187343    3    1   17   17
 0.02837475663120691    3    1   18    2
 -0.005217106088385374    3    1   18    4
 -0.002108100051486421    3    1   18   10
 0.0032305326967855    3    1   18   17
 -0.0023309665204836    3    1   18   18
 0.002838132221363787    3    1   19   19
 0.002838132221363778    3    1   20   20
 -0.008168717737196829    3    1   21    6
 0.003465970264441364    3    1   21    7
 -0.006137080743193309    3    1   21   12
 0.0005004418643210686    3    1   21   13
 -6.894228521232967e-05    3    1   21   21
 -0.003465970264441371    3    1   22    6
 -0.008168717737196822    3    1   22    7
 -0.0005004418643210708    3    1   22   12
 -0.006137080743193318    3    1   22   13
 -6.894228521232612e-05    3    1   22   22
 0.0008381791636969593    3    1   23   23
 0.0008381791636969123    3    1   24   24
 -0.00800496528744676    3    1   25    1
 0.006203174744080411    3    1   25    3
 -0.008055223737413882    3    1   25    5
 -0.003907323880057683    3    1   25   11
 -0.001816867435411477    3    1   25   14
 -0.0008193837168095732    3    1   25   25
 0.00355636000326184    3    1   26    8
 -0.001376765358162539    3    1   26    9
 -0.0006833022889230154    3    1   26   15
 -0.001645909458918777    3    1   26   16
 -0.0005484205351470631    3    1   26   26
 -0.001376765358162548    3    1   27    8
 -0.003556360003261832    3    1   27    9
 -0.001645909458918777    3    1   27   15
 0.0006833022889230324    3    1   27   16
 -0.000548420535147061    3    1   27   27
 -0.02253302911970295    3    1   28    2
 -0.0001916756496164301    3    1   28    4
 -0.0005936744982271405    3    1   28   10
 0.00299445517233123    3    1   28   17
 -0.001411237235935576    3    1   28   18
 -0.005599554762877403    3    1   28   28
 -0.206897365745879    3    2    2    1
 0.03510825571907682    3    2    3    2
 0.02565486034509598    3    2    4    1
 -0.008742459531786179    3    2    4    3
 0.003411851942317427    3    2    5    2
 -0.01504699788638394    3    2    5    4
 -0.00450094637004538    3    2    8    6
 0.006928999326798296    3    2    8    7
 0.006928999326798304    3    2    9    6
 0.004500946370045357    3    2    9    7
 0.02025768393356204    3    2   10    1
 -0.004635842603331215    3    2   10    3
 -0.001699101624946009    3    2   10    5
 -0.007749432302035016    3    2   11    2
 -0.002498492761399137    3    2   11    4
 -0.002498466739912086    3    2   11   10
 -0.004874054105299754    3    2   12    8
 0.003899745629161708    3    2   12    9
 0.003899745629161716    3    2   13    8
 0.004874054105299752    3    2   13    9
 0.0220380301486669    3    2   14    2
 -0.01276016639809355    3    2   14    4
 -0.005630721702007234    3    2   14   10
 0.006755229293222764    3    2   15    6
 0.004159732969757326    3    2   15    7
 0.006783902596442321    3    2   15   12
 0.00807143385940823    3    2   15   13
 0.004159732969757336    3    2   16    6
 -0.006755229293222746    3    2   16    7
 0.008071433859408221    3    2   16   12
 -0.006783902596442327    3    2   16   13
 0.01205120476368568    3    2   17    1
 -0.0005311392609016576    3    2   17    3
 0.01286682859067005    3    2   17    5
 0.006295935457175605    3    2   17   11
 0.0111424759044096    3    2   17   14
 0.02823680261186199    3    2   18    1
 -0.005705060482427766    3    2   18    3
 -0.00336923579215834    3    2   18    5
 -0.0001705711157886522    3    2   18   11
 -0.007294703231234212    3    2   18   14
 -0.006532834663208373    3    2   21    8
 0.004406717820344789    3    2   21    9
 0.003918938956824171    3    2   21   15
 0.005517608899381563    3    2   21   16
 0.004406717820344785    3    2   22    8
 0.006532834663208371    3    2   22    9
 0.005517608899381576    3    2   22   15
 -0.00391893895682416    3    2   22   16
 0.003963922124921708    3    2   23   19
 0.001220599734170731    3    2   23   20
 0.001220599734170758    3    2   24   19
 -0.003963922124921729    3    2   24   20
 -0.007987631109197932    3    2   25    2
 -0.0022430762814134    3    2   25    4
 0.00275447074030796    3    2   25   10
 0.009463567835515082    3    2   25   17
 0.003183519050915511    3    2   25   18
 0.001348354196643949    3    2   26    6
 -0.0009735449648618444    3    2   26    7
 -0.0003955607413808298    3    2   26   12
 0.000124724449205105    3    2   26   13
 0.004594942232317623    3    2   26   21
 -0.001047217961985604    3    2   26   22
 0.0009735449648618316    3    2   27    6
 0.001348354196643958    3    2   27    7
 -0.0001247244492051245    3    2   27   12
 -0.000395560741380813    3    2   27   13
 0.001047217961985588    3    2   27   21
 0.004594942232317632    3    2   27   22
 -0.02182225576642869    3    2   28    1
 0.002809364724491513    3    2   28    3
 -0.002889279288670217    3    2   28    5
 -0.00553121283958853    3    2   28   11
 -0.001890384059369188    3    2   28   14
 0.0002280425130467695    3    2   28   25
 0.8266121738484075    3    3    1    1
 0.8265518343274285    3    3    2    2
 0.005223274826093497    3    3    3    1
 0.805068400425061    3    3    3    3
 -0.02101619501725168    3    3    4    2
 0.5174157031793409    3    3    4    4
 -0.03016165665613038    3    3    5    1
 -0.1410971391144208    3    3    5    3
 0.5641899509175657    3    3    5    5
 0.6245175537955183    3    3    6    6
 0.6245175537955167    3    3    7    7
 0.529059068779874    3    3    8    8
 0.5290590687798733    3    3    9    9
 -0.001388328700403117    3    3   10    2
 0.09841264698230741    3    3   10    4
 0.3811025736400256    3    3   10   10
 -0.0181215421282556    3    3   11    1
 -0.08773806388986874    3    3   11    3
 0.1301203170404368    3    3   11    5
 0.4692975243569985    3    3   11   11
 0.1487004459048287    3    3   12    6
 -0.04926321766198133    3    3   12    7
 0.5073489171036132    3    3   12   12
 0.04926321766198146    3    3   13    6
 0.1487004459048284    3    3   13    7
 0.5073489171036132    3    3   13   13
 -0.01796987213805136    3    3   14    1
 0.08277875285929119    3    3   14    3
 0.05073209982221437    3    3   14    5
 -0.06152770245603208    3    3   14   11
 0.468035796232122    3    3   14   14
 -0.003903648403086846    3    3   15    8
 0.1616831108210178    3    3   15    9
 0.4972945761520245    3    3   15   15
 -0.1616831108210177    3    3   16    8
 -0.003903648403087031    3    3   16    9
 0.4972945761520244    3    3   16   16
 0.03223634866791544    3    3   17    2
 -0.009993907428302275    3    3   17    4
 0.1169851712192994    3    3   17   10
 0.6020927727744448    3    3   17   17
 -0.0005248646333017988    3    3   18    2
 0.08198905574255716    3    3   18    4
 0.1183659541963506    3    3   18   10
 0.1031169359740955    3    3   18   17
 0.5150878638565546    3    3   18   18
 0.594731756856959    3    3   19   19
 0.5947317568569601    3    3   20   20
 -0.07327129025065932    3    3   21    6
 0.03108885891473921    3    3   21    7
 -0.02469849081292856    3    3   21   12
 0.002014012737578428    3    3   21   13
 0.6116600168183317    3    3   21   21
 -0.03108885891473902    3    3   22    6
 -0.07327129025065958    3    3   22    7
 -0.0020140127375784    3    3   22   12
 -0.02469849081292858    3    3   22   13
 0.6116600168183327    3    3   22   22
 0.5618557038396736    3    3   23   23
 0.5618557038396729    3    3   24   24
 -0.003192849132039623    3    3   25    1
 0.05012217511776041    3    3   25    3
 -0.07245989623282109    3    3   25    5
 -0.06354757797462091    3    3   25   11
 -6.273028122786434e-06    3    3   25   14
 0.5886720371114311    3    3   25   25
 0.05868894478197899    3    3   26    8
 -0.02272011438910422    3    3   26    9
 -0.0312477148813044    3    3   26   15
 -0.07526816509541898    3    3   26   16
 0.5550553254544572    3    3   26   26
 -0.02272011438910383    3    3   27    8
 -0.0586889447819792    3    3   27    9
 -0.07526816509541895    3    3   27   15
 0.03124771488130415    3    3   27   16
 0.5550553254544561    3    3   27   27
 -0.02776620361825309    3    3   28    2
 0.0213563160695078    3    3   28    4
 -0.01697387888563925    3    3   28   10
 -0.1479061841424708    3    3   28   17
 -0.1203201620763879    3    3   28   18
 0.6301167080477534    3    3   28   28
 -0.1786523687427355    4    1    2    1
 0.025654860345096    4    1    3    2
 0.02894993227511578    4    1    4    1
 -0.003769739218407456    4    1    4    3
 0.01535344211033325    4    1    5    2
 0.00376323213045024    4    1    5    4
 -0.0009736474432949433    4    1    8    6
 0.001498885328656232    4    1    8    7
 0.001498885328656236    4    1    9    6
 0.0009736474432949372    4    1    9    7
 0.01633802154674488    4    1   10    1
 -0.005975730488708864    4    1   10    3
 0.0001234250246304495    4    1   10    5
 0.002571373896684065    4    1   11    2
 -0.0003276802984881396    4    1   11    4
 0.003922985476030882    4    1   11   10
 -0.003839106447529339    4    1   12    8
 0.003071680835951316    4    1   12    9
 0.003071680835951315    4    1   13    8
 0.003839106447529334    4    1   13    9
 0.02590487304631843    4    1   14    2
 -0.002157344320507691    4    1   14    4
 -0.001753202646681238    4    1   14   10
 0.004274991949020888    4    1   15    6
 0.00263245319794401    4    1   15    7
 0.003396183404718958    4    1   15   12
 0.004040752256670758    4    1   15   13
 0.002632453197944013    4    1   16    6
 -0.004274991949020882    4    1   16    7
 0.004040752256670751    4    1   16   12
 -0.003396183404718962    4    1   16   13
 -0.006354426665609423    4    1   17    1
 -0.007742920357223287    4    1   17    3
 0.00217465407716357    4    1   17    5
 0.005085487058875181    4    1   17   11
 -0.003829334077442812    4    1   17   14
 0.02219577283228515    4    1   18    1
 -0.008992838923011101    4    1   18    3
 0.001590728172464809    4    1   18    5
 0.003276304924483346    4    1   18   11
 -0.003000543310944206    4    1   18   14
 0.001867145033843545    4    1   21    8
 -0.001259481024392823    4    1   21    9
 9.021865266444188e-05    4    1   21   15
 0.0001270219430095298    4    1   21   16
 -0.001259481024392828    4    1   22    8
 -0.001867145033843546    4    1   22    9
 0.0001270219430095298    4    1   22   15
 -9.021865266444065e-05    4    1   22   16
 -0.001859299912478733    4    1   23   19
 -0.000572529153548926    4    1   23   20
 -0.0005725291535488883    4    1   24   19
 0.001859299912478711    4    1   24   20
 -0.002012955851633088    4    1   25    2
 0.00262433742926282    4    1   25    4
 0.0001668862816348504    4    1   25   10
 -0.001636418572446479    4    1   25   17
 0.001155793558119472    4    1   25   18
 -0.003891819474623669    4    1   26    6
 0.002809989588122737    4    1   26    7
 -0.003602793268389728    4    1   26   12
 0.001135998492750284    4    1   26   13
 -0.003963375064921049    4    1   26   21
 0.0009032795948726613    4    1   26   22
 -0.002809989588122742    4    1   27    6
 -0.003891819474623648    4    1   27    7
 -0.001135998492750289    4    1   27   12
 -0.003602793268389724    4    1   27   13
 -0.000903279594872661    4    1   27   21
 -0.003963375064921048    4    1   27   22
 -0.002418772266393464    4    1   28    1
 0.01021875945512033    4    1   28    3
 -0.009053127719480514    4    1   28    5
 -0.006641602565291112    4    1   28   11
 0.0001114712362908767    4    1   28   14
 -0.005585505479208571    4    1   28   25
 -0.1860320617542825    4    2    1    1
 -0.1861374251112395    4    2    2    2
 0.02535484636753043    4    2    3    1
 -0.02101619501725168    4    2    3    3
 0.02920123915885896    4    2    4    2
 -0.003275684789636145    4    2    4    4
 0.01586051062185262    4    2    5    1
 0.007482531261787007    4    2    5    3
 -0.004082272822190527    4    2    5    5
 -0.008349094161818373    4    2    6    6
 -0.008349094161818341    4    2    7    7
 -0.004825248906180453    4    2    8    8
 -0.004825248906180442    4    2    9    9
 0.01629784825582624    4    2   10    2
 -0.004847057624265675    4    2   10    4
 -0.003601028953925639    4    2   10   10
 0.002931985274328501    4    2   11    1
 0.006889810599841097    4    2   11    3
 -0.006387657054308889    4    2   11    5
 -0.006026919922702553    4    2   11   11
 -0.007046613380802209    4    2   12    6
 0.00233448424882643    4    2   12    7
 -0.009061146723085955    4    2   12   12
 -0.002334484248826436    4    2   13    6
 -0.007046613380802193    4    2   13    7
 -0.00906114672308596    4    2   13   13
 0.02608017517929815    4    2   14    1
 -0.005996662601478705    4    2   14    3
 0.0006918923515360035    4    2   14    5
 0.002048937168509758    4    2   14   11
 -0.003919112379484059    4    2   14   14
 0.0001619910193273485    4    2   15    8
 -0.006709418786077737    4    2   15    9
 -0.00914197210975057    4    2   15   15
 0.006709418786077744    4    2   16    8
 0.0001619910193273545    4    2   16    9
 -0.009141972109750563    4    2   16   16
 -0.006901672632608181    4    2   17    2
 -0.003408450554643883    4    2   17    4
 -0.005239259288629192    4    2   17   10
 -0.009692148504787584    4    2   17   17
 0.02211401869939988    4    2   18    2
 -0.005593739966029897    4    2   18    4
 -0.006213148442831263    4    2   18   10
 -0.00742292102655682    4    2   18   17
 -0.009735003101276228    4    2   18   18
 -0.003514335821607976    4    2   19   19
 -0.003514335821607996    4    2   20   20
 0.003066584492760207    4    2   21    6
 -0.001301145541717694    4    2   21    7
 0.000261895951218774    4    2   21   12
 -2.135603287139974e-05    4    2   21   13
 -0.003058983894141218    4    2   21   21
 0.001301145541717691    4    2   22    6
 0.003066584492760214    4    2   22    7
 2.135603287139317e-05    4    2   22   12
 0.0002618959512187794    4    2   22   13
 -0.003058983894141222    4    2   22   22
 -0.00208506381605464    4    2   23   23
 -0.002085063816054682    4    2   24   24
 -0.002001968188844156    4    2   25    1
 -0.0007614141821639313    4    2   25    3
 0.003906279847634398    4    2   25    5
 0.0002596261606492474    4    2   25   11
 0.001727100293363707    4    2   25   14
 -0.003295255271374866    4    2   25   25
 -0.005751953852348878    4    2   26    8
 0.002226740487014893    4    2   26    9
 0.002203694167119458    4    2   26   15
 0.005308164677660902    4    2   26   16
 -0.002190690147216024    4    2   26   26
 0.002226740487014877    4    2   27    8
 0.005751953852348867    4    2   27    9
 0.005308164677660903    4    2   27   15
 -0.002203694167119442    4    2   27   16
 -0.002190690147216014    4    2   27   27
 -0.001894398759666046    4    2   28    2
 -0.0006957311863570126    4    2   28    4
 0.006122123648021703    4    2   28   10
 0.01616521060530063    4    2   28   17
 0.009566514103197641    4    2   28   18
 -0.0174759514473002    4    2   28   28
 0.1733816866086106    4    3    2    1
 -0.008742459531786182    4    3    3    2
 -0.003769739218407453    4    3    4    1
 0.05721875083938122    4    3    4    3
 0.002023904792731449    4    3    5    2
 0.09370803037279064    4    3    5    4
 0.0455324959605383    4    3    8    6
 -0.07009517730708607    4    3    8    7
 -0.07009517730708614    4    3    9    6
 -0.04553249596053814    4    3    9    7
 -0.003979320718074911    4    3   10    1
 0.03523636496662325    4    3   10    3
 -0.01026025607858024    4    3   10    5
 0.003239896141541205    4    3   11    2
 0.002651142626185966    4    3   11    4
 0.03513213715077342    4    3   11   10
 0.01972453919743122    4    3   12    8
 -0.01578166426974459    4    3   12    9
 -0.01578166426974468    4    3   13    8
 -0.01972453919743123    4    3   13    9
 -0.003224543073241181    4    3   14    2
 0.0410808470936746    4    3   14    4
 0.03205076636660874    4    3   14   10
 -0.03868444777855042    4    3   15    6
 -0.023821097087368    4    3   15    7
 -0.04495322416720741    4    3   15   12
 -0.05348499193120027    4    3   15   13
 -0.02382109708736802    4    3   16    6
 0.03868444777855033    4    3   16    7
 -0.0534849919312002    4    3   16   12
 0.04495322416720744    4    3   16   13
 -0.004782552711476611    4    3   17    1
 0.03572405350066635    4    3   17    3
 -0.05974980247019031    4    3   17    5
 -0.0252058681681324    4    3   17   11
 -0.053683394402332    4    3   17   14
 -0.005606225913590768    4    3   18    1
 0.03840836710490792    4    3   18    3
 -0.008325702847268419    4    3   18    5
 -0.01069791969983611    4    3   18   11
 0.04646805412842153    4    3   18   14
 0.04258543448346543    4    3   21    8
 -0.0287259670112712    4    3   21    9
 -0.01261890691095728    4    3   21   15
 -0.01776659290676702    4    3   21   16
 -0.02872596701127116    4    3   22    8
 -0.04258543448346545    4    3   22    9
 -0.01776659290676704    4    3   22   15
 0.01261890691095714    4    3   22   16
 -0.08214329914325197    4    3   23   19
 -0.02529416218037876    4    3   23   20
 -0.02529416218037866    4    3   24   19
 0.08214329914325198    4    3   24   20
 0.0008867815877061193    4    3   25    2
 -0.006284097138835345    4    3   25    4
 -0.02954357203162345    4    3   25   10
 -0.05509423647655073    4    3   25   17
 -0.02440394935938824    4    3   25   18
 0.005175451433628559    4    3   26    6
 -0.003736803502104172    4    3   26    7
 0.01450668811608338    4    3   26   12
 -0.004574110865382666    4    3   26   13
 -0.07266597946009155    4    3   26   21
 0.01656106106855282    4    3   26   22
 0.003736803502104285    4    3   27    6
 0.005175451433628479    4    3   27    7
 0.004574110865382794    4    3   27   12
 0.01450668811608323    4    3   27   13
 -0.01656106106855269    4    3   27   21
 -0.07266597946009158    4    3   27   22
 0.006620755653030606    4    3   28    1
 -0.01809494231111232    4    3   28    3
 0.01411371522169418    4    3   28    5
 0.04179177105463146    4    3   28   11
 -0.003903162939522195    4    3   28   14