 &FCI NORB=  28,NELEC=14,MS2=0,
  ORBSYM=1,1,1,1,1,1,1,1,1,1,1,1,1,1,1,1,1,1,1,1,1,1,1,1,1,1,1,1,
  ISYM=1,
 &END
 2.230088067015815    1    1    1    1
 -3.255738590693555e-09    1    1    2    1
 2.230195182452159    1    1    2    2
 -0.1916988671715899    1    1    3    1
 1.68212989073497e-10    1    1    3    2
 0.6700381209695192    1    1    3    3
 5.187432954850617e-10    1    1    4    1
 -0.2029213042393654    1    1    4    2
 -4.928236341152775e-10    1    1    4    3
 0.644233635066168    1    1    4    4
 0.05516137213070275    1    1    5    1
 -3.415391921001234e-11    1    1    5    2
 0.03684139446942306    1    1    5    3
 3.385537374533606e-10    1    1    5    4
 0.6373324111515839    1    1    5    5
 0.5923189796632123    1    1    6    6
 0.5923189796632131    1    1    7    7
 8.513159800585882e-11    1    1    8    6
 -4.855615931236685e-10    1    1    8    7
 0.6073170589222538    1    1    8    8
 -4.855604591362875e-10    1    1    9    6
 -8.513271179319808e-11    1    1    9    7
 0.6073170589222525    1    1    9    9
 -2.47944805910211e-10    1    1   10    1
 0.0916038666826193    1    1   10    2
 2.7717770309868e-10    1    1   10    3
 -0.07566194484507105    1    1   10    4
 4.218014609466691e-10    1    1   10    5
 0.6540460219238379    1    1   10   10
 -1.447480236042851e-10    1    1   11    1
 0.06121224245722184    1    1   11    2
 1.205704495120009e-11    1    1   11    3
 -0.1266150614192311    1    1   11    4
 -3.783915964036214e-10    1    1   11    5
 -0.2146267563919481    1    1   11   10
 0.5528439284725307    1    1   11   11
 0.2226761407718585    1    1   12    6
 -0.03056054967945907    1    1   12    7
 1.177882456217141e-10    1    1   12    8
 -3.677652586354637e-10    1    1   12    9
 0.6048577902319732    1    1   12   12
 0.03056054967945904    1    1   13    6
 0.2226761407718587    1    1   13    7
 -3.677643293835693e-10    1    1   13    8
 -1.177847078352969e-10    1    1   13    9
 0.6048577902319727    1    1   13   13
 0.1291807668385851    1    1   14    1
 -1.014394983103693e-10    1    1   14    2
 -0.101463947904637    1    1   14    3
 2.879373497445548e-10    1    1   14    4
 0.1949037762504101    1    1   14    5
 7.199740955331213e-11    1    1   14   10
 -4.560900541787649e-10    1    1   14   11
 0.5135345558424932    1    1   14   14
 2.898680644472518e-10    1    1   15    6
 -1.345559227461466e-10    1    1   15    7
 0.1360566475614235    1    1   15    8
 -0.1954311868207635    1    1   15    9
 4.90193981109513e-10    1    1   15   12
 -1.506730969680315e-10    1    1   15   13
 0.5696203619590315    1    1   15   15
 1.345586664010592e-10    1    1   16    6
 2.898708702066201e-10    1    1   16    7
 -0.1954311868207637    1    1   16    8
 -0.1360566475614234    1    1   16    9
 1.506730855534155e-10    1    1   16   12
 4.90192931807639e-10    1    1   16   13
 0.5696203619590314    1    1   16   16
 -0.1153265765022447    1    1   17    1
 1.076126378864162e-10    1    1   17    2
 0.1548247473748361    1    1   17    3
 -1.567383319488191e-10    1    1   17    4
 0.09982889654417794    1    1   17    5
 2.437632908025567e-10    1    1   17   10
 -1.714228169136245e-10    1    1   17   11
 0.00167824323950458    1    1   17   14
 0.5634819011225404    1    1   17   17
 -3.702688026740059e-10    1    1   18    1
 0.1426022917031114    1    1   18    2
 2.480589431780311e-10    1    1   18    3
 -0.143950356216829    1    1   18    4
 5.604290035515769e-12    1    1   18    5
 0.1276902890792463    1    1   18   10
 -0.001591574223321238    1    1   18   11
 -1.708224681498671e-10    1    1   18   14
 3.179028117139548e-10    1    1   18   17
 0.5100899418961989    1    1   18   18
 0.02757172122962877    1    1   19    6
 0.0002382851365130305    1    1   19    7
 -1.80297601935081e-11    1    1   19    8
 1.083324411080278e-10    1    1   19    9
 -0.02264213878520107    1    1   19   12
 -0.003307059876172535    1    1   19   13
 2.292268978798528e-11    1    1   19   15
 1.088229419771158e-11    1    1   19   16
 0.5487902814062749    1    1   19   19
 -0.0002382851365131415    1    1   20    6
 0.02757172122962841    1    1   20    7
 1.083326851077267e-10    1    1   20    8
 1.803023469458889e-11    1    1   20    9
 0.003307059876172283    1    1   20   12
 -0.02264213878520125    1    1   20   13
 -1.088215021566308e-11    1    1   20   15
 2.292293118559899e-11    1    1   20   16
 0.5487902814062753    1    1   20   20
 0.5399855243189273    1    1   21   21
 0.5399855243189274    1    1   22   22
 0.05584957935907928    1    1   23    1
 -5.32198638796195e-11    1    1   23    2
 -0.04582059328232534    1    1   23    3
 7.094394472925702e-11    1    1   23    4
 -0.03794860256561322    1    1   23    5
 -3.180442558620156e-10    1    1   23   10
 1.659770411388539e-10    1    1   23   11
 -0.0101528072025553    1    1   23   14
 -0.04603564577596005    1    1   23   17
 -2.970600154750258e-11    1    1   23   18
 0.6122490304218269    1    1   23   23
 -3.350653088318722e-12    1    1   24   21
 -3.924808256172696e-10    1    1   24   22
 0.5409296909477167    1    1   24   24
 -3.924810476618745e-10    1    1   25   21
 3.350819621772416e-12    1    1   25   22
 0.5409296909477179    1    1   25   25
 -1.296061001576643e-11    1    1   26    6
 -0.0002522917166500482    1    1   26    8
 0.001639662268686708    1    1   26    9
 -5.002027091138839e-11    1    1   26   12
 -7.932847900706669e-12    1    1   26   13
 0.01619833059344097    1    1   26   15
 0.007934688947942661    1    1   26   16
 3.697832595683792e-10    1    1   26   19
 4.530230357513432e-12    1    1   26   20
 0.5567631447868988    1    1   26   26
 -1.296088683968612e-11    1    1   27    7
 0.001639662268687025    1    1   27    8
 0.0002522917166500831    1    1   27    9
 7.932749075678647e-12    1    1   27   12
 -5.002020454805104e-11    1    1   27   13
 -0.007934688947942602    1    1   27   15
 0.01619833059344081    1    1   27   16
 -4.530178315809152e-12    1    1   27   19
 3.697831364030124e-10    1    1   27   20
 0.5567631447868983    1    1   27   27
 -1.474468081471051e-11    1    1   28    1
 0.007311370976566131    1    1   28    2
 -8.161520938243516e-12    1    1   28    3
 -0.02331516605104712    1    1   28    4
 -6.397633291188587e-11    1    1   28    5
 -0.02389846014928801    1    1   28   10
 0.07362727137922834    1    1   28   11
 -9.548162954731154e-11    1    1   28   14
 -1.20362254885098e-10    1    1   28   17
 -0.05785712966767469    1    1   28   18
 -3.159074668523942e-10    1    1   28   23
 0.5583182042174187    1    1   28   28
 -3.255739360827134e-09    2    1    1    1
 1.896816248675842    2    1    2    1
 3.255546204949925e-09    2    1    2    2
 1.664540009203894e-10    2    1    3    1
 -0.193766218686749    2    1    3    2
 -0.2008314622955241    2    1    4    1
 -1.724464455954856e-10    2    1    4    2
 0.287142547783968    2    1    4    3
 -4.068328315028473e-11    2    1    5    1
 0.04754447878692902    2    1    5    2
 -0.1972361986854884    2    1    5    4
 -0.04959574109297927    2    1    8    6
 0.2828749077412843    2    1    8    7
 0.2828749077412838    2    1    9    6
 0.04959574109297928    2    1    9    7
 0.09864962808186818    2    1   10    1
 8.463125423529991e-11    2    1   10    2
 -0.1614540047130112    2    1   10    3
 -0.2457170718158552    2    1   10    5
 0.05354644397212741    2    1   11    1
 4.566652902062638e-11    2    1   11    2
 -0.006846751867372729    2    1   11    3
 0.2201386821932496    2    1   11    5
 -1.52885831165156e-12    2    1   11   11
 -0.06853603157053526    2    1   12    8
 0.2139904032622237    2    1   12    9
 -1.406800498033982e-12    2    1   12   12
 0.2139904032622237    2    1   13    8
 0.06853603157053526    2    1   13    9
 -1.410798269352606e-12    2    1   13   13
 -1.060969154145443e-10    2    1   14    1
 0.1237791524241797    2    1   14    2
 -0.1679377565044809    2    1   14    4
 -0.04232374438711908    2    1   14   10
 0.2658011971218471    2    1   14   11
 1.43120779984296e-12    2    1   14   14
 -0.1691300151358123    2    1   15    6
 0.07850999251052178    2    1   15    7
 -0.285669017606535    2    1   15   12
 0.08780745187548968    2    1   15   13
 1.471920350361311e-12    2    1   15   15
 -0.07850999251052163    2    1   16    6
 -0.1691300151358124    2    1   16    7
 -0.08780745187548976    2    1   16   12
 -0.2856690176065348    2    1   16   13
 1.475380202124038e-12    2    1   16   16
 1.033463539304626e-10    2    1   17    1
 -0.1203144575512876    2    1   17    2
 0.09134917328892542    2    1   17    4
 -0.1420476541873253    2    1   17   10
 0.0998771265413189    2    1   17   11
 0.1444782694341559    2    1   18    1
 1.240668355633365e-10    2    1   18    2
 -0.1445210663924276    2    1   18    3
 -0.003216454587395006    2    1   18    5
 0.09952970282208193    2    1   18   14
 -0.1852426206390335    2    1   18   17
 0.01050289586189821    2    1   19    8
 -0.06310588519199425    2    1   19    9
 -0.01331908461251657    2    1   19   15
 -0.00632318218003398    2    1   19   16
 -0.06310588519199446    2    1   20    8
 -0.01050289586189835    2    1   20    9
 0.00632318218003398    2    1   20   15
 -0.01331908461251637    2    1   20   16
 -5.058307000325069e-11    2    1   23    1
 0.05893309594649947    2    1   23    2
 -0.04135821519836708    2    1   23    4
 0.1853139908256707    2    1   23   10
 -0.09669396484884597    2    1   23   11
 0.01733474167761175    2    1   23   18
 0.001952229742178978    2    1   24   21
 0.2286679573587476    2    1   24   22
 0.2286679573587478    2    1   25   21
 -0.001952229742178978    2    1   25   22
 0.007548839324569188    2    1   26    6
 0.0001577379751225054    2    1   26    7
 0.02917328200640588    2    1   26   12
 0.004626666756255385    2    1   26   13
 -0.2154437624847484    2    1   26   19
 -0.002639417177580126    2    1   26   20
 -0.0001577379751224925    2    1   27    6
 0.007548839324569569    2    1   27    7
 -0.00462666675625535    2    1   27   12
 0.029173282006406    2    1   27   13
 0.002639417177580084    2    1   27   19
 -0.2154437624847484    2    1   27   20
 0.004941615545256772    2    1   28    1
 4.254510463955153e-12    2    1   28    2
 0.004758551923564829    2    1   28    3
 0.03727446245985394    2    1   28    5
 0.05575447927710828    2    1   28   14
 0.07011951269469052    2    1   28   17
 0.1840583992064484    2    1   28   23
 2.230195182452159    2    2    1    1
 3.255546755749616e-09    2    2    2    1
 2.230302318629196    2    2    2    2
 -0.1917180077863783    2    2    3    1
 -4.96953445522068e-10    2    2    3    2
 0.6700314851228298    2    2    3    3
 -1.706478529278188e-10    2    2    4    1
 -0.2029352584378655    2    2    4    2
 4.928632775340336e-10    2    2    4    3
 0.6442443729655304    2    2    4    4
 0.05515372246286371    2    2    5    1
 1.290475799459087e-10    2    2    5    2
 0.03682622275548266    2    2    5    3
 -3.385077345383417e-10    2    2    5    4
 0.6373392239645038    2    2    5    5
 0.5923170801231413    2    2    6    6
 0.592317080123142    2    2    7    7
 -8.511789791878707e-11    2    2    8    6
 4.854757540187471e-10    2    2    8    7
 0.6073186675941399    2    2    8    8
 4.854767827978598e-10    2    2    9    6
 8.511680151934015e-11    2    2    9    7
 0.6073186675941387    2    2    9    9
 9.06766428724503e-11    2    2   10    1
 0.09162428466624192    2    2   10    2
 -2.770525757596343e-10    2    2   10    3
 -0.07565094125012276    2    2   10    4
 -4.216823587359364e-10    2    2   10    5
 0.6540414417469018    2    2   10   10
 3.907160368955066e-11    2    2   11    1
 0.06120259283874788    2    2   11    2
 -1.144598584207172e-11    2    2   11    3
 -0.1266270097664814    2    2   11    4
 3.772880181017457e-10    2    2   11    5
 -0.2146275371444906    2    2   11   10
 0.5528557662812033    2    2   11   11
 0.2226791603029648    2    2   12    6
 -0.03056096408636438    2    2   12    7
 -1.174784412612717e-10    2    2   12    8
 3.668091334824543e-10    2    2   12    9
 0.6048602350670738    2    2   12   12
 0.03056096408636435    2    2   13    6
 0.2226791603029649    2    2   13    7
 3.668100188309369e-10    2    2   13    8
 1.174819677499635e-10    2    2   13    9
 0.6048602350670732    2    2   13   13
 0.1291812600637275    2    2   14    1
 3.234632954653225e-10    2    2   14    2
 -0.1014704138806368    2    2   14    3
 -2.885497886093678e-10    2    2   14    4
 0.1949127210771931    2    2   14    5
 -7.328958761491228e-11    2    2   14   10
 4.563367778272209e-10    2    2   14   11
 0.5135473436133812    2    2   14   14
 -2.907119794458984e-10    2    2   15    6
 1.349487884719919e-10    2    2   15    7
 0.1360577493915966    2    2   15    8
 -0.195432769484913    2    2   15    9
 -4.904346302984572e-10    2    2   15   12
 1.507474175361774e-10    2    2   15   13
 0.5696228816874443    2    2   15   15
 -1.349460131312707e-10    2    2   16    6
 -2.907091875846467e-10    2    2   16    7
 -0.1954327694849132    2    2   16    8
 -0.1360577493915964    2    2   16    9
 -1.507473486317412e-10    2    2   16   12
 -4.904356940862886e-10    2    2   16   13
 0.5696228816874445    2    2   16   16
 -0.1153457195017121    2    2   17    1
 -3.054128555621065e-10    2    2   17    2
 0.154821857368192    2    2   17    3
 1.568397521231613e-10    2    2   17    4
 0.09982248179167799    2    2   17    5
 -2.438495564326126e-10    2    2   17   10
 1.714298425437022e-10    2    2   17   11
 0.001677326020022965    2    2   17   14
 0.563473371435695    2    2   17   17
 1.256755068072048e-10    2    2   18    1
 0.1426176973676473    2    2   18    2
 -2.480446538270786e-10    2    2   18    3
 -0.1439544077268457    2    2   18    4
 -5.437173714734067e-12    2    2   18    5
 0.1276830506938445    2    2   18   10
 -0.001584042383670018    2    2   18   11
 1.708368112772474e-10    2    2   18   14
 -3.179863143631945e-10    2    2   18   17
 0.5100873954070908    2    2   18   18
 0.02756184588143896    2    2   19    6
 0.0002381997900570765    2    2   19    7
 1.802399202111005e-11    2    2   19    8
 -1.082939098638602e-10    2    2   19    9
 -0.02264705519103543    2    2   19   12
 -0.00330777795535331    2    2   19   13
 -2.279828929807604e-11    2    2   19   15
 -1.082355862921935e-11    2    2   19   16
 0.5487877423295059    2    2   19   19
 -0.0002381997900571871    2    2   20    6
 0.02756184588143859    2    2   20    7
 -1.082936745377787e-10    2    2   20    8
 -1.802351963422349e-11    2    2   20    9
 0.003307777955353057    2    2   20   12
 -0.02264705519103563    2    2   20   13
 1.08237041291509e-11    2    2   20   15
 -2.27980646513859e-11    2    2   20   16
 0.5487877423295063    2    2   20   20
 0.5399826741346458    2    2   21   21
 0.5399826741346461    2    2   22   22
 0.05586206102005748    2    2   23    1
 1.490932004117045e-10    2    2   23    2
 -0.04582198921094324    2    2   23    3
 -7.102818767174002e-11    2    2   23    4
 -0.03796074473887595    2    2   23    5
 3.180910725791852e-10    2    2   23   10
 -1.659483626903491e-10    2    2   23   11
 -0.01015873144774162    2    2   23   14
 -0.04603598609048776    2    2   23   17
 2.979956559290287e-11    2    2   23   18
 0.612248031029617    2    2   23   23
 3.350847377348032e-12    2    2   24   21
 3.924777863817397e-10    2    2   24   22
 0.540927362619287    2    2   24   24
 3.924775227037713e-10    2    2   25   21
 -3.350680843894338e-12    2    2   25   22
 0.5409273626192882    2    2   25   25
 1.295263896139431e-11    2    2   26    6
 -0.0002537951569092254    2    2   26    8
 0.001649433236592145    2    2   26    9
 5.012414615312988e-11    2    2   26   12
 7.949312378057599e-12    2    2   26   13
 0.01619303293986076    2    2   26   15
 0.007932093913036412    2    2   26   16
 -3.697800399216078e-10    2    2   26   19
 -4.530213010278672e-12    2    2   26   20
 0.5567622457627701    2    2   26   26
 1.29523519459742e-11    2    2   27    7
 0.001649433236592463    2    2   27    8
 0.0002537951569092597    2    2   27    9
 -7.949411203085621e-12    2    2   27   12
 5.012419380720349e-11    2    2   27   13
 -0.007932093913036356    2    2   27   15
 0.01619303293986061    2    2   27   16
 4.530268521429903e-12    2    2   27   19
 -3.697801023716529e-10    2    2   27   20
 0.5567622457627698    2    2   27   27
 2.220687534955443e-12    2    2   28    1
 0.007309110794733617    2    2   28    2
 8.173546041378987e-12    2    2   28    3
 -0.02331357760848869    2    2   28    4
 6.397720374307081e-11    2    2   28    5
 -0.02388803153467717    2    2   28   10
 0.07362114805391692    2    2   28   11
 9.59095008273847e-11    2    2   28   14
 1.203399949134543e-10    2    2   28   17
 -0.05785465227656612    2    2   28   18
 3.159179584599769e-10    2    2   28   23
 0.5583168113443819    2    2   28   28
 -0.1916988671715898    3    1    1    1
 1.66454015429541e-10    3    1    2    1
 -0.1917180077863783    3    1    2    2
 0.02965386660937464    3    1    3    1
 -0.004540504060471035    3    1    3    3
 -5.092746168926226e-11    3    1    4    1
 0.02965374516507049    3    1    4    2
 7.204634658368415e-12    3    1    4    3
 -0.009780880905670811    3    1    4    4
 -0.004813597310632191    3    1    5    1
 0.004685466015093964    3    1    5    3
 -6.1335306035797e-12    3    1    5    4
 -0.00588841412310028    3    1    5    5
 -0.003110659652374774    3    1    6    6
 -0.003110659652374784    3    1    7    7
 4.642638645164463e-12    3    1    8    7
 -0.004692067690417432    3    1    8    8
 4.642609572876131e-12    3    1    9    6
 -0.004692067690417425    3    1    9    9
 3.000238573151332e-11    3    1   10    1
 -0.0175195821101265    3    1   10    2
 -1.872419838670975e-12    3    1   10    3
 -0.0005250706664635974    3    1   10    4
 -3.838578082780361e-12    3    1   10    5
 -0.004179691322099758    3    1   10   10
 9.007549526477354e-12    3    1   11    1
 -0.005170344747174008    3    1   11    2
 -2.472334189722878e-12    3    1   11    3
 0.00628464997422329    3    1   11    4
 6.653521649786645e-12    3    1   11    5
 0.003874059444406837    3    1   11   10
 -0.009150007974213895    3    1   11   11
 -0.005751409151288914    3    1   12    6
 0.0007893356894259274    3    1   12    7
 -1.796340467172963e-12    3    1   12    8
 5.60859467558844e-12    3    1   12    9
 -0.007823028765090707    3    1   12   12
 -0.0007893356894259272    3    1   13    6
 -0.005751409151288914    3    1   13    7
 5.608573585698898e-12    3    1   13    8
 1.796257216010346e-12    3    1   13    9
 -0.007823028765090697    3    1   13   13
 -0.01658007323786394    3    1   14    1
 0.005006322075001866    3    1   14    3
 -6.910333248886223e-12    3    1   14    4
 -0.006645559166609865    3    1   14    5
 -1.774248091585755e-12    3    1   14   10
 8.028626862725124e-12    3    1   14   11
 -0.008814181039761742    3    1   14   14
 -4.400785532293399e-12    3    1   15    6
 2.042825119777196e-12    3    1   15    7
 -0.003300071472746799    3    1   15    8
 0.004740208553360777    3    1   15    9
 -7.266769973165435e-12    3    1   15   12
 2.233619481728641e-12    3    1   15   13
 -0.007337095443094428    3    1   15   15
 -2.042895094016002e-12    3    1   16    6
 -4.400855349619352e-12    3    1   16    7
 0.00474020855336078    3    1   16    8
 0.003300071472746796    3    1   16    9
 -2.233616364647395e-12    3    1   16   12
 -7.266742670593627e-12    3    1   16   13
 -0.007337095443094427    3    1   16   16
 0.02005374045468647    3    1   17    1
 -0.003605550973682766    3    1   17    3
 2.979455360578034e-12    3    1   17    4
 -0.0002703111262644469    3    1   17    5
 -3.184669575848151e-12    3    1   17   10
 1.671137891696289e-12    3    1   17   11
 0.0002927492395292491    3    1   17   14
 -0.002454199661568039    3    1   17   17
 3.824622023603647e-11    3    1   18    1
 -0.02229380558261729    3    1   18    2
 -4.316997420245061e-12    3    1   18    3
 0.005467700466223526    3    1   18    4
 1.798861166496741e-12    3    1   18    5
 -0.001534242596224149    3    1   18   10
 -0.002023830385906217    3    1   18   11
 3.323357832758279e-12    3    1   18   14
 -3.186422581683262e-12    3    1   18   17
 -0.003246029164681846    3    1   18   18
 0.002805322045714612    3    1   19    6
 2.42446433089655e-05    3    1   19    7
 -2.084112771785415e-12    3    1   19    9
 0.001651294732136518    3    1   19   12
 0.0002411843953519476    3    1   19   13
 1.030670677859449e-12    3    1   19   15
 0.0003121251381421003    3    1   19   19
 -2.42446433089624e-05    3    1   20    6
 0.002805322045714622    3    1   20    7
 -2.084086167883441e-12    3    1   20    8
 -0.0002411843953519444    3    1   20   12
 0.001651294732136527    3    1   20   13
 1.030654849884159e-12    3    1   20   16
 0.0003121251381420967    3    1   20   20
 0.0001133181593898269    3    1   21   21
 0.0001133181593898226    3    1   22   22
 -0.01053911528566743    3    1   23    1
 0.002959411315233183    3    1   23    3
 0.004719806724720567    3    1   23    5
 4.630476291774834e-12    3    1   23   10
 -3.466175409167589e-12    3    1   23   11
 0.002097560214516581    3    1   23   14
 0.003065035154370807    3    1   23   17
 1.366933357547758e-12    3    1   23   18
 -0.002141188738115571    3    1   23   23
 1.371244411353906e-12    3    1   24   22
 -5.103299013273541e-05    3    1   24   24
 1.371243735421614e-12    3    1   25   21
 -5.103299013273144e-05    3    1   25   25
 1.941754000936381e-12    3    1   26    6
 0.0004438813490491501    3    1   26    8
 -0.002884817264211314    3    1   26    9
 1.74228159628142e-12    3    1   26   12
 0.001773369669315    3    1   26   15
 0.0008686782032605364    3    1   26   16
 -1.601140579713181e-12    3    1   26   19
 -0.0002336462782372779    3    1   26   26
 1.941798176603021e-12    3    1   27    7
 -0.002884817264211321    3    1   27    8
 -0.0004438813490491521    3    1   27    9
 1.742297214920458e-12    3    1   27   13
 -0.0008686782032605388    3    1   27   15
 0.001773369669315007    3    1   27   16
 -1.601142186111166e-12    3    1   27   20
 -0.0002336462782372842    3    1   27   27
 0.0001265417201889139    3    1   28    2
 0.0003230096621684982    3    1   28    4
 -0.001895394501276839    3    1   28   10
 0.0003493425393701549    3    1   28   11
 -0.0006659396396026066    3    1   28   18
 1.467675969906573e-12    3    1   28   23
 -0.0004539507620777273    3    1   28   28
 1.682129274935069e-10    3    2    1    1
 -0.1937662186867491    3    2    2    1
 -4.96953335391453e-10    3    2    2    2
 0.02963300249072403    3    2    3    2
 -3.876759402814302e-12    3    2    3    3
 0.02968159052230245    3    2    4    1
 5.091399749949651e-11    3    2    4    2
 -0.00838181958726834    3    2    4    3
 -8.392273838500809e-12    3    2    4    4
 -0.004907526219093075    3    2    5    2
 4.021819457870369e-12    3    2    5    3
 0.007151627720710525    3    2    5    4
 -5.053508311684066e-12    3    2    5    5
 -2.661297540034e-12    3    2    6    6
 -2.661133167784871e-12    3    2    7    7
 0.0009475626971237614    3    2    8    6
 -0.005404530804882163    3    2    8    7
 -4.024834355602607e-12    3    2    8    8
 -0.005404530804882153    3    2    9    6
 -0.0009475626971237614    3    2    9    7
 -4.024757476351216e-12    3    2    9    9
 -0.01742768894308286    3    2   10    1
 -2.998017017790677e-11    3    2   10    2
 0.002174617983039464    3    2   10    3
 0.004469541414851512    3    2   10    5
 -3.581036468335193e-12    3    2   10   10
 -0.005270964196323447    3    2   11    1
 -8.913365558785858e-12    3    2   11    2
 0.002862144774802603    3    2   11    3
 5.369119899519643e-12    3    2   11    4
 -0.0077286941758126    3    2   11    5
 3.314593283003375e-12    3    2   11   10
 -7.794914494148146e-12    3    2   11   11
 -4.915426742122409e-12    3    2   12    6
 0.002087034258481695    3    2   12    8
 -0.006516357780869486    3    2   12    9
 -6.665236647383863e-12    3    2   12   12
 -4.915270603602628e-12    3    2   13    7
 -0.006516357780869486    3    2   13    8
 -0.002087034258481695    3    2   13    9
 -6.665120534711173e-12    3    2   13   13
 -0.01664879618054558    3    2   14    2
 4.295486658560535e-12    3    2   14    3
 0.008067365381100608    3    2   14    4
 -5.723716454885341e-12    3    2   14    5
 0.002080247564839894    3    2   14   10
 -0.00935294412372243    3    2   14   11
 -7.610948746646041e-12    3    2   14   14
 0.005136159566285704    3    2   15    6
 -0.002384200396116157    3    2   15    7
 -2.83950988951023e-12    3    2   15    8
 4.078618010242994e-12    3    2   15    9
 0.008463591752152819    3    2   15   12
 -0.002601494665741271    3    2   15   13
 -6.334139040776706e-12    3    2   15   15
 0.002384200396116153    3    2   16    6
 0.005136159566285707    3    2   16    7
 4.078757900063574e-12    3    2   16    8
 2.83953984483041e-12    3    2   16    9
 0.002601494665741275    3    2   16   12
 0.008463591752152813    3    2   16   13
 -6.334243346954929e-12    3    2   16   16
 0.01999312814827798    3    2   17    2
 -3.083334749591358e-12    3    2   17    3
 -0.003465876368014669    3    2   17    4
 0.003705011497726047    3    2   17   10
 -0.001948654927643008    3    2   17   11
 -2.098203954191818e-12    3    2   17   17
 -0.0222701227550137    3    2   18    1
 -3.824213659356486e-11    3    2   18    2
 0.005023537906898442    3    2   18    3
 4.694100015434338e-12    3    2   18    4
 -0.002102010991786358    3    2   18    5
 -1.313071476555956e-12    3    2   18   10
 -1.729498441009803e-12    3    2   18   11
 -0.003879480608042609    3    2   18   14
 0.003707627624397505    3    2   18   17
 -2.786722017390547e-12    3    2   18   18
 2.407076315070859e-12    3    2   19    6
 -0.0004043341744958755    3    2   19    8
 0.002429412452569522    3    2   19    9
 1.413835099884665e-12    3    2   19   12
 -0.001204983164262746    3    2   19   15
 -0.0005720609406105257    3    2   19   16
 2.40703920899266e-12    3    2   20    7
 0.002429412452569532    3    2   20    8
 0.0004043341744958806    3    2   20    9
 1.413827752277512e-12    3    2   20   13
 0.0005720609406105261    3    2   20   15
 -0.001204983164262756    3    2   20   16
 -0.01050965620838053    3    2   23    2
 2.536868569488933e-12    3    2   23    3
 0.0002738858867072817    3    2   23    4
 4.049155697966999e-12    3    2   23    5
 -0.005393761091856431    3    2   23   10
 0.004030187388910911    3    2   23   11
 1.812226143617628e-12    3    2   23   14
 2.628751708498578e-12    3    2   23   17
 -0.001591327887871604    3    2   23   18
 -1.835184565077141e-12    3    2   23   23
 -1.363960068516808e-05    3    2   24   21
 -0.001597629398060641    3    2   24   22
 -0.001597629398060633    3    2   25   21
 1.363960068523015e-05    3    2   25   22
 -0.002263398618929978    3    2   26    6
 -4.729520654692922e-05    3    2   26    7
 -2.478100561328889e-12    3    2   26    9
 -0.002026276429906696    3    2   26   12
 -0.0003213524551394217    3    2   26   13
 1.527455543775744e-12    3    2   26   15
 0.001865845236081236    3    2   26   19
 2.285860546632221e-05    3    2   26   20
 4.729520654692867e-05    3    2   27    6
 -0.002263398618929986    3    2   27    7
 -2.478119227552767e-12    3    2   27    8
 0.000321352455139421    3    2   27   12
 -0.002026276429906702    3    2   27   13
 1.527469887643431e-12    3    2   27   16
 -2.285860546632041e-05    3    2   27   19
 0.001865845236081241    3    2   27   20
 9.475687145345328e-05    3    2   28    1
 0.000799541216118249    3    2   28    3
 0.000870196377655084    3    2   28    5
 -1.629938791900508e-12    3    2   28   10
 -0.0006561105113698284    3    2   28   14
 -9.137393376892382e-05    3    2   28   17
 -0.001711682060168751    3    2   28   23
 0.6700381209695194    3    3    1    1
 0.6700314851228298    3    3    2    2
 -0.004540504060471027    3    3    3    1
 -3.876760622118229e-12    3    3    3    2
 0.5780870383543247    3    3    3    3
 9.57655222567959e-12    3    3    4    1
 -0.01114207272760184    3    3    4    2
 0.4873726442097021    3    3    4    4
 0.01417110825231225    3    3    5    1
 1.216499740636198e-11    3    3    5    2
 0.08564109433080706    3    3    5    3
 0.509133402021231    3    3    5    5
 0.5022761562974564    3    3    6    6
 0.502276156297457    3    3    7    7
 0.4873088059780372    3    3    8    8
 0.4873088059780363    3    3    9    9
 7.166574947278228e-12    3    3   10    1
 -0.008363412402915094    3    3   10    2
 -0.07780093197753334    3    3   10    4
 0.5315272214603225    3    3   10   10
 -1.29819831443379e-11    3    3   11    1
 0.01508330116209385    3    3   11    2
 -0.04183796689216183    3    3   11    4
 -0.1232689032609825    3    3   11   10
 0.3953810232797856    3    3   11   11
 0.09851665684189918    3    3   12    6
 -0.01352063663055715    3    3   12    7
 0.4547560901653385    3    3   12   12
 0.01352063663055712    3    3   13    6
 0.09851665684189925    3    3   13    7
 0.4547560901653383    3    3   13   13
 0.01360669349817257    3    3   14    1
 1.171445179713873e-11    3    3   14    2
 -0.03609612544228342    3    3   14    3
 0.08836728673118238    3    3   14    5
 0.3773113571067137    3    3   14   14
 0.06651505216334526    3    3   15    8
 -0.09554193652948145    3    3   15    9
 0.4272422190819002    3    3   15   15
 -0.09554193652948154    3    3   16    8
 -0.06651505216334511    3    3   16    9