 &FCI NORB=  19,NELEC=24,MS2=0,
  ORBSYM=1,1,1,1,1,1,1,1,1,1,1,1,1,1,1,1,1,1,1,
  ISYM=1,
 &END
 4.746131583966475    1    1    1    1
 0.0001015933610484264    1    1    2    1
 0.3692794848677719    1    1    2    2
 0.0008575804317586736    1    1    3    1
 1.671524981480822e-05    1    1    3    2
 0.3692393379679185    1    1    3    3
 -0.3667511332368861    1    1    4    1
 0.0003037028415222491    1    1    4    2
 0.002555533049022416    1    1    4    3
 0.8922129532448589    1    1    4    4
 -0.2337101100673737    1    1    5    1
 0.0002332123140529934    1    1    5    2
 0.00196326244284886    1    1    5    3
 0.2631620179923193    1    1    5    4
 0.5011938840017571    1    1    5    5
 5.991218026393377e-05    1    1    6    1
 -0.001440628703438704    1    1    6    2
 0.000170123261313017    1    1    6    3
 -5.614306145131564e-05    1    1    6    4
 -4.678936081703444e-05    1    1    6    5
 0.3531278536223021    1    1    6    6
 -1.485158157418175e-06    1    1    7    1
 -6.283322377047089e-09    1    1    7    2
 -5.326664278876205e-08    1    1    7    3
 3.165064623982666e-07    1    1    7    4
 1.40361465683983e-06    1    1    7    5
 7.929578903220769e-10    1    1    7    6
 0.4289594609827105    1    1    7    7
 -0.1329757981239277    1    1    8    1
 -0.0007015714472030926    1    1    8    2
 -0.005917792852522492    1    1    8    3
 0.05888675418396445    1    1    8    4
 0.2071617606247784    1    1    8    5
 -3.786351423750063e-05    1    1    8    6
 6.114950406276021e-08    1    1    8    7
 0.5660082604205147    1    1    8    8
 3.965471582336935e-10    1    1    9    1
 -1.110863685937027e-06    1    1    9    2
 1.314690194914332e-07    1    1    9    3
 -3.326904011828613e-09    1    1    9    4
 -4.970243275975728e-09    1    1    9    5
 -2.738733495977891e-05    1    1    9    6
 -4.642883889227623e-05    1    1    9    7
 -6.278762718081587e-10    1    1    9    8
 0.2824967089971841    1    1    9    9
 -5.177407862043624e-05    1    1   10    1
 -0.006689419984030871    1    1   10    2
 0.0007906731533755505    1    1   10    3
 3.985017006742555e-06    1    1   10    4
 3.074321840200629e-05    1    1   10    5
 -0.1961279183232608    1    1   10    6
 2.519979496427849e-08    1    1   10    7
 9.397799698528803e-05    1    1   10    8
 5.515822907567122e-05    1    1   10    9
 0.7306466511872782    1    1   10   10
 -0.09616805377259857    1    1   11    1
 -0.0004293192020626043    1    1   11    2
 -0.003632922061166248    1    1   11    3
 0.02229516018750292    1    1   11    4
 0.148399249237694    1    1   11    5
 1.741796222685683e-05    1    1   11    6
 0.0002606646548146555    1    1   11    7
 0.2472931610494009    1    1   11    8
 -8.453600569037489e-08    1    1   11    9
 -2.052615235689087e-05    1    1   11   10
 0.5871236382704986    1    1   11   11
 7.816974409713428e-05    1    1   12    1
 3.571357065313362e-07    1    1   12    2
 3.021861489857502e-06    1    1   12    3
 -1.385097771007494e-05    1    1   12    4
 -0.0001256942211118927    1    1   12    5
 -3.169341834113881e-09    1    1   12    6
 0.2981419171982662    1    1   12    7
 -0.0002266148002338427    1    1   12    8
 -7.899037852745518e-05    1    1   12    9
 2.576021492645131e-08    1    1   12   10
 0.0003243811839220181    1    1   12   11
 0.9629274092905095    1    1   12   12
 6.276537689367394e-05    1    1   13    1
 -0.005659643073129579    1    1   13    2
 0.0006725466955476337    1    1   13    3
 -8.664837616430606e-05    1    1   13    4
 -2.16339203436115e-06    1    1   13    5
 0.08335937107079748    1    1   13    6
 -3.117928044004889e-09    1    1   13    7
 9.664618808479127e-05    1    1   13    8
 -3.858576103711511e-05    1    1   13    9
 -0.2906418794710743    1    1   13   10
 0.0002121194695564594    1    1   13   11
 -1.625336823531413e-07    1    1   13   12
 0.5715784965506632    1    1   13   13
 0.190474584793401    1    1   14    1
 0.0008214831217692234    1    1   14    2
 0.0069348472473482    1    1   14    3
 -0.2553290293696419    1    1   14    4
 -0.07125375042318829    1    1   14    5
 6.570459799851418e-06    1    1   14    6
 7.833821080813642e-06    1    1   14    7
 0.1786141093392027    1    1   14    8
 -2.165053506700959e-09    1    1   14    9
 7.243177525859991e-05    1    1   14   10
 0.2168045269265161    1    1   14   11
 -0.0001378442628816045    1    1   14   12
 0.0002257368739367058    1    1   14   13
 0.8289907101338814    1    1   14   14
 7.05351384152005e-05    1    1   15    1
 6.156155061424801e-07    1    1   15    2
 5.198288852245386e-06    1    1   15    3
 -9.226943405509132e-05    1    1   15    4
 -1.959821256684088e-05    1    1   15    5
 2.675883889208946e-08    1    1   15    6
 -0.001908205550657772    1    1   15    7
 5.183014611890007e-05    1    1   15    8
 1.714151808101562e-05    1    1   15    9
 -1.724455398199876e-07    1    1   15   10
 -5.798487508327762e-05    1    1   15   11
 -0.1678491493630878    1    1   15   12
 2.72855438259779e-07    1    1   15   13
 0.0001854402786596026    1    1   15   14
 0.3308753282950291    1    1   15   15
 -0.04658797131514864    1    1   16    1
 -0.0009171336489475867    1    1   16    2
 -0.007733571843042677    1    1   16    3
 0.06361033439581278    1    1   16    4
 -0.0005959819003724595    1    1   16    5
 -7.622110318674866e-06    1    1   16    6
 -4.587419163773476e-07    1    1   16    7
 -0.01906335400588637    1    1   16    8
 2.941604208828164e-08    1    1   16    9
 6.562924712577925e-05    1    1   16   10
 -0.07784658787883013    1    1   16   11
 5.189214401464526e-06    1    1   16   12
 -0.0001496761392088389    1    1   16   13
 -0.1410037151621046    1    1   16   14
 -2.237077612538343e-05    1    1   16   15
 0.2978451887157102    1    1   16   16
 -0.0001131248965908737    1    1   17    1
 0.0003225286764286711    1    1   17    2
 -4.478181563063191e-05    1    1   17    3
 0.0001490234018726226    1    1   17    4
 3.946991545543746e-05    1    1   17    5
 0.01472853962574887    1    1   17    6
 -5.056495642336012e-09    1    1   17    7
 -7.339978199859525e-05    1    1   17    8
 -2.874626654794828e-05    1    1   17    9
 -0.1558677776117278    1    1   17   10
 -8.09158080164519e-05    1    1   17   11
 2.048117782090658e-07    1    1   17   12
 0.1545353703259315    1    1   17   13
 -0.0002923417663001715    1    1   17   14
 -2.742960175661224e-08    1    1   17   15
 1.047469565352427e-05    1    1   17   16
 0.369266368747548    1    1   17   17
 8.28626717351102e-05    1    1   18    1
 0.01067232314833357    1    1   18    2
 -0.00126141195637355    1    1   18    3
 -0.0001071329729630555    1    1   18    4
 -3.809526124167384e-05    1    1   18    5
 -0.0449878552371735    1    1   18    6
 6.322819523160716e-09    1    1   18    7
 5.203163417910432e-05    1    1   18    8
 1.135445712216639e-05    1    1   18    9
 0.1432378870891719    1    1   18   10
 4.139835020930188e-05    1    1   18   11
 -4.896789265740331e-08    1    1   18   12
 -0.1522220704437668    1    1   18   13
 0.0001700491555297248    1    1   18   14
 -9.598858447673608e-08    1    1   18   15
 1.658688544042136e-05    1    1   18   16
 -0.1407039747436023    1    1   18   17
 0.4448107867808763    1    1   18   18
 -4.719745066705625e-09    1    1   19    1
 4.035076786376571e-07    1    1   19    2
 -4.739936053068305e-08    1    1   19    3
 5.271965282404624e-09    1    1   19    4
 4.982768686372097e-09    1    1   19    5
 -8.473210263574074e-07    1    1   19    6
 2.428468636878067e-06    1    1   19    7
 -5.10850133115387e-09    1    1   19    8
 0.06139295229809284    1    1   19    9
 -2.325116059508688e-05    1    1   19   10
 2.941920160129743e-08    1    1   19   11
 2.856484060924803e-05    1    1   19   12
 1.497375966580909e-05    1    1   19   13
 -7.548897377855635e-09    1    1   19   14
 -1.798009178856363e-05    1    1   19   15
 -4.313452050402899e-09    1    1   19   16
 3.437163800010246e-06    1    1   19   17
 -1.07749021396094e-05    1    1   19   18
 0.307510739189756    1    1   19   19
 0.0001015933610484265    2    1    1    1
 4.188049561834355e-07    2    1    2    1
 0.0001096059185682727    2    1    2    2
 2.081151441015759e-08    2    1    3    1
 0.0003055516185044129    2    1    3    2
 -3.722778960118682e-05    2    1    3    3
 -1.350587738916614e-05    2    1    4    1
 -3.524143781494398e-05    2    1    4    2
 -5.149230864325522e-08    2    1    4    3
 -2.156025167728455e-06    2    1    4    4
 -7.659150800205877e-06    2    1    5    1
 3.292476233766608e-05    2    1    5    2
 6.127862960981989e-09    2    1    5    3
 1.745087594193813e-06    2    1    5    4
 3.048815314118452e-06    2    1    5    5
 -1.314480645587397e-05    2    1    6    1
 -9.749895507394317e-06    2    1    6    2
 -4.066395055099969e-05    2    1    6    3
 -2.128712394606256e-05    2    1    6    4
 -2.358421693884696e-05    2    1    6    5
 5.01283023387145e-07    2    1    6    6
 -1.200000266962831e-11    2    1    7    1
 -3.381693461940457e-11    2    1    7    2
 6.088920360884502e-12    2    1    7    3
 3.21384950954867e-11    2    1    7    4
 1.280627369202253e-10    2    1    7    5
 -1.179934576768729e-09    2    1    7    6
 -8.810941555558054e-07    2    1    7    7
 -2.8723655728886e-06    2    1    8    1
 1.553596817385935e-05    2    1    8    2
 9.059967210126085e-08    2    1    8    3
 4.043320000727444e-06    2    1    8    4
 -1.345219633985232e-07    2    1    8    5
 6.74292378278227e-06    2    1    8    6
 -6.207147661883219e-11    2    1    8    7
 5.643890852130222e-07    2    1    8    8
 4.898795821178344e-09    2    1    9    1
 8.927215396931441e-10    2    1    9    2
 3.680889422084666e-09    2    1    9    3
 8.042416242239439e-09    2    1    9    4
 -9.702012145757622e-10    2    1    9    5
 6.18622048885599e-10    2    1    9    6
 8.634852953289857e-07    2    1    9    7
 3.07454154316154e-09    2    1    9    8
 -2.728099979483078e-07    2    1    9    9
 3.955606814556779e-05    2    1   10    1
 6.412342796325882e-06    2    1   10    2
 2.644090519797777e-05    2    1   10    3
 5.819123868522139e-05    2    1   10    4
 7.03317540077577e-06    2    1   10    5
 2.948403207710758e-06    2    1   10    6
 -2.154297156415936e-10    2    1   10    7
 1.765190907401602e-05    2    1   10    8
 6.689744587337238e-11    2    1   10    9
 -5.909505386117398e-07    2    1   10   10
 -1.26670411405155e-06    2    1   11    1
 1.723559252760032e-05    2    1   11    2
 -8.712701501728634e-08    2    1   11    3
 3.501049068313887e-06    2    1   11    4
 4.903397802227627e-07    2    1   11    5
 1.566346361248996e-05    2    1   11    6
 2.503070476143367e-11    2    1   11    7
 2.031394971881261e-06    2    1   11    8
 3.41168653020078e-09    2    1   11    9
 4.598112662684595e-06    2    1   11   10
 5.625688557292837e-07    2    1   11   11
 9.295249879477366e-10    2    1   12    1
 -1.384398306795918e-08    2    1   12    2
 7.488881913148399e-11    2    1   12    3
 -2.941945629824417e-09    2    1   12    4
 -4.720998859032042e-10    2    1   12    5
 -1.296870236968318e-08    2    1   12    6
 1.261612034903573e-08    2    1   12    7
 -1.706019295513085e-09    2    1   12    8
 3.052544108290727e-06    2    1   12    9
 -3.970679426876312e-09    2    1   12   10
 1.103883757371949e-10    2    1   12   11
 6.966000202540597e-07    2    1   12   12
 -3.583897655997137e-05    2    1   13    1
 5.210532363469176e-06    2    1   13    2
 2.200349429879877e-05    2    1   13    3
 -1.857793700660921e-05    2    1   13    4
 -4.164600855703777e-05    2    1   13    5
 2.981715630252096e-06    2    1   13    6
 -5.876043798781546e-10    2    1   13    7
 -7.604399600918757e-06    2    1   13    8
 7.936640583816921e-11    2    1   13    9
 -3.817815063960279e-07    2    1   13   10
 -9.721167504068198e-06    2    1   13   11
 7.781250504858228e-09    2    1   13   12
 8.247737655153029e-07    2    1   13   13
 9.97219777977528e-06    2    1   14    1
 -5.929353074413776e-05    2    1   14    2
 2.833346713781e-09    2    1   14    3
 -5.574842859337939e-07    2    1   14    4
 2.52589797898928e-06    2    1   14    5
 -1.342548133575915e-05    2    1   14    6
 3.554487332980113e-10    2    1   14    7
 9.409677108204848e-07    2    1   14    8
 -1.836220940561288e-09    2    1   14    9
 -4.483954945622087e-06    2    1   14   10
 1.310417152788285e-06    2    1   14   11
 -1.015127370476538e-09    2    1   14   12
 2.141001747321283e-05    2    1   14   13
 -3.400098195372874e-06    2    1   14   14
 3.652551418090808e-09    2    1   15    1
 -1.560818241116407e-08    2    1   15    2
 2.731211788373938e-11    2    1   15    3
 -5.632510295977602e-10    2    1   15    4
 1.950474062080408e-09    2    1   15    5
 -1.146597244409237e-08    2    1   15    6
 -1.299568007280956e-06    2    1   15    7
 1.467860595827055e-10    2    1   15    8
 4.555825940600253e-06    2    1   15    9
 -9.277980081795529e-09    2    1   15   10
 -4.805281002928811e-10    2    1   15   11
 -2.166301500375147e-07    2    1   15   12
 -1.683451081897416e-09    2    1   15   13
 -6.056463836413771e-10    2    1   15   14
 -1.059722867311729e-06    2    1   15   15
 -2.500557371506302e-06    2    1   16    1
 -4.458646368069394e-06    2    1   16    2
 4.785853842056991e-08    2    1   16    3
 6.857186782885833e-07    2    1   16    4
 -3.073350158020168e-06    2    1   16    5
 1.801418912532861e-05    2    1   16    6
 -5.318622685846152e-10    2    1   16    7
 4.367496587753711e-07    2    1   16    8
 4.921122626616671e-09    2    1   16    9
 1.957965655823395e-05    2    1   16   10
 1.439281836561035e-06    2    1   16   11
 -1.344722699136244e-09    2    1   16   12
 1.803222951943383e-05    2    1   16   13
 -2.577700316376211e-07    2    1   16   14
 -1.853324812745498e-09    2    1   16   15
 3.067248236143957e-06    2    1   16   16
 -2.055764334613383e-05    2    1   17    1
 1.233932964310687e-05    2    1   17    2
 5.120104277574561e-05    2    1   17    3
 -1.208094967183511e-05    2    1   17    4
 4.098930564905581e-06    2    1   17    5
 -5.858878084033361e-07    2    1   17    6
 -6.771823733160719e-10    2    1   17    7
 -1.962543030618515e-05    2    1   17    8
 -3.862923166447266e-10    2    1   17    9
 -3.20265226995377e-06    2    1   17   10
 -2.609056790517905e-05    2    1   17   11
 2.195820051952657e-08    2    1   17   12
 -2.642520108018843e-06    2    1   17   13
 2.361319676317361e-05    2    1   17   14
 1.881908976792491e-08    2    1   17   15
 -2.853997705074856e-05    2    1   17   16
 1.403146646580616e-06    2    1   17   17
 2.28161891011269e-05    2    1   18    1
 -1.138613488399389e-05    2    1   18    2
 -4.66442761056562e-05    2    1   18    3
 3.129458149154121e-06    2    1   18    4
 2.73660767086223e-05    2    1   18    5
 -2.595492132143368e-06    2    1   18    6
 -6.478419885110067e-10    2    1   18    7
 1.085933570496941e-05    2    1   18    8
 2.431034739324974e-10    2    1   18    9
 1.222935465524811e-06    2    1   18   10
 1.133173396005514e-05    2    1   18   11
 -9.281977869821111e-09    2    1   18   12
 -6.156102279043328e-07    2    1   18   13
 -1.74638080963897e-05    2    1   18   14
 -1.296776564299752e-09    2    1   18   15
 -1.036712215445491e-05    2    1   18   16
 2.762777559708079e-06    2    1   18   17
 -1.355674040580845e-06    2    1   18   18
 -1.886689436039178e-09    2    1   19    1
 1.180599195643633e-09    2    1   19    2
 4.945641616058865e-09    2    1   19    3
 -8.93694968892093e-10    2    1   19    4
 4.77100474413443e-10    2    1   19    5
 -4.885500588640856e-11    2    1   19    6
 6.190724362613931e-06    2    1   19    7
 -2.254253934531854e-09    2    1   19    8
 -9.19838305875176e-07    2    1   19    9
 -2.264117375966612e-10    2    1   19   10
 -1.474952739804469e-09    2    1   19   11
 1.183245504362837e-06    2    1   19   12
 -2.703274813570367e-10    2    1   19   13
 2.007645806152924e-09    2    1   19   14
 3.769467646813539e-06    2    1   19   15
 -1.135007298360807e-09    2    1   19   16
 2.334758314201204e-10    2    1   19   17
 3.474187153085018e-10    2    1   19   18
 -1.185053834671018e-06    2    1   19   19
 0.3692794848677717    2    2    1    1
 0.0001096059185682724    2    2    2    1
 2.01246414901718    2    2    2    2
 0.0002961082775135218    2    2    3    1
 0.3579648587916321    2    2    3    2
 1.841383736935897    2    2    3    3
 0.0009822586378491305    2    2    4    1
 -0.03031559667237726    2    2    4    2
 -0.0824982547176174    2    2    4    3
 0.4684364877258848    2    2    4    4
 -0.0009029372869027077    2    2    5    1
 0.04514710571240139    2    2    5    2
 0.1244289938585612    2    2    5    3
 -0.08255221035006229    2    2    5    4
 0.4868062034530208    2    2    5    5
 0.0001947773367300064    2    2    6    1
 -0.1422966033298881    2    2    6    2
 -0.01535349084824339    2    2    6    3
 0.02272635240123486    2    2    6    4
 -0.03628976657482498    2    2    6    5
 0.4872634822163776    2    2    6    6
 -6.920622938143053e-08    2    2    7    1
 4.97150842651865e-07    2    2    7    2
 1.114673939566239e-06    2    2    7    3
 -3.042139905317341e-06    2    2    7    4
 1.965576840942673e-06    2    2    7    5
 1.692773489176541e-06    2    2    7    6
 0.4601277118912807    2    2    7    7
 -0.003117357079673846    2    2    8    1
 0.001153161756878056    2    2    8    2
 -0.001597102345507141    2    2    8    3
 -0.08569348190406433    2    2    8    4
 0.01267621991534088    2    2    8    5
 0.02187781237908704    2    2    8    6
 3.090850380759597e-06    2    2    8    7
 0.4716270369072312    2    2    8    8
 -7.58369467728847e-08    2    2    9    1
 -2.373010570173926e-06    2    2    9    2
 -2.068705086205819e-07    2    2    9    3
 -1.903774226126066e-06    2    2    9    4
 -2.685590573137803e-06    2    2    9    5
 -1.289457567953817e-06    2    2    9    6
 -0.0386495108392681    2    2    9    7
 3.839816727153195e-06    2    2    9    8
 0.4515288157516161    2    2    9    9
 -0.0006387519227021651    2    2   10    1
 0.005708545126923961    2    2   10    2
 0.001070679197087618    2    2   10    3
 -0.01490807910941881    2    2   10    4
 -0.01520226062202016    2    2   10    5
 -0.007058862065559644    2    2   10    6
 5.963286624997496e-06    2    2   10    7
 0.01623983792698008    2    2   10    8
 -1.148467234465822e-06    2    2   10    9
 0.4492337757938349    2    2   10   10
 -0.003626164506831038    2    2   11    1
 -0.0007511390074583297    2    2   11    2
 0.001407838131415945    2    2   11    3
 -0.02021010935448399    2    2   11    4
 -0.08332061496335524    2    2   11    5
 -0.01451698231136289    2    2   11    6
 -2.629400480206635e-05    2    2   11    7
 -0.07083509649145241    2    2   11    8
 1.521245953603652e-05    2    2   11    9
 0.0173889214194747    2    2   11   10
 0.5125408190019303    2    2   11   11
 3.1466718402593e-06    2    2   12    1
 1.165825789639543e-06    2    2   12    2
 2.248559077623656e-07    2    2   12    3
 1.599239936752087e-05    2    2   12    4
 7.30032609241784e-05    2    2   12    5
 1.180227634933577e-05    2    2   12    6
 -0.02750712736708614    2    2   12    7
 6.180816857923044e-05    2    2   12    8
 0.01580381887724961    2    2   12    9
 -1.694577094640132e-05    2    2   12   10
 -0.0001315210535745058    2    2   12   11
 0.35955104285445    2    2   12   12
 0.0006868568824830632    2    2   13    1
 -0.01089942854389842    2    2   13    2
 -0.002628230310183447    2    2   13    3
 -0.0003088459710745401    2    2   13    4
 -0.01266070166959234    2    2   13    5
 -0.01493763756769408    2    2   13    6
 9.388503046086488e-08    2    2   13    7
 -0.01122562649013795    2    2   13    8
 6.942164569570118e-06    2    2   13    9
 0.08778846144543383    2    2   13   10
 0.0457582444908913    2    2   13   11
 -3.923331547425708e-05    2    2   13   12
 0.5680114864546427    2    2   13   13
 -0.005866693925476774    2    2   14    1
 -0.03399402670648798    2    2   14    2
 -0.09346224828157615    2    2   14    3
 0.05730378170118276    2    2   14    4
 -0.07008126977407431    2    2   14    5
 0.0171999129305836    2    2   14    6
 -3.931846233971121e-05    2    2   14    7
 -0.04664586122138257    2    2   14    8
 1.937224369783202e-06    2    2   14    9
 -0.02278129974354154    2    2   14   10
 -0.06429069415656548    2    2   14   11
 6.475693721061295e-05    2    2   14   12
 -0.02919742832782708    2    2   14   13
 0.5202788249816159    2    2   14   14
 -2.152055001028213e-06    2    2   15    1
 4.19470498174031e-06    2    2   15    2
 1.286364063072509e-05    2    2   15    3
 1.130486177521733e-05    2    2   15    4
 1.714156448324924e-05    2    2   15    5
 -4.437620689861851e-06    2    2   15    6
 0.1460632193800016    2    2   15    7
 -6.166456149688145e-05    2    2   15    8
 -0.01886394852659442    2    2   15    9
 -8.714333095154701e-06    2    2   15   10
 -5.138808837618688e-05    2    2   15   11
 -0.04488342502948704    2    2   15   12
 -7.702131219942303e-06    2    2   15   13
 2.113959783381185e-05    2    2   15   14
 0.4955965162382706    2    2   15   15
 0.001549727947665441    2    2   16    1
 -0.03278281470049034    2    2   16    2
 -0.09453128891336431    2    2   16    3
 0.01395516445219034    2    2   16    4
 -0.08764062767428568    2    2   16    5
 0.02343889177903965    2    2   16    6
 6.16493250893916e-05    2    2   16    7
 0.111548187624951    2    2   16    8
 -4.936321199985536e-06    2    2   16    9
 0.01305734188946566    2    2   16   10
 -0.007246557128488079    2    2   16   11
 -1.102162279567782e-05    2    2   16   12
 0.003631478441812637    2    2   16   13
 -0.03004030154881279    2    2   16   14
 -2.972713173413077e-06    2    2   16   15
 0.4863292411880236    2    2   16   16
 0.0003929954382747642    2    2   17    1
 0.1752786297015946    2    2   17    2
 0.01997903825534524    2    2   17    3
 -0.01898696843827629    2    2   17    4
 0.02994360288839647    2    2   17    5
 -0.1532532417214536    2    2   17    6
 3.841689974195053e-06    2    2   17    7
 0.006473415916971589    2    2   17    8
 -2.449302584088021e-05    2    2   17    9
 -0.008168184619325426    2    2   17   10
 -0.006140884862029105    2    2   17   11
 5.107142628238935e-06    2    2   17   12
 -0.05553054108066802    2    2   17   13
 -0.02457120320159216    2    2   17   14
 1.323579835407762e-05    2    2   17   15
 -0.03447727211737923    2    2   17   16
 0.5201819467128972    2    2   17   17
 -0.0004653019786985948    2    2   18    1
 -0.04035527810668621    2    2   18    2
 -0.00731713359473232    2    2   18    3
 0.01692082144317156    2    2   18    4
 -0.006396240704295633    2    2   18    5
 -0.01087865805229439    2    2   18    6
 6.262988624314292e-07    2    2   18    7
 -0.03890664318487091    2    2   18    8
 -2.785825096296261e-05    2    2   18    9
 -0.1008474822210099    2    2   18   10
 0.01305188598291585    2    2   18   11
 -1.188605547609335e-05    2    2   18   12
 0.05824787041150541    2    2   18   13
 0.02015972699105001    2    2   18   14
 2.590654917303953e-05    2    2   18   15
 -0.04114029184951162    2    2   18   16
 -0.08692038928613181    2    2   18   17
 0.6408934621518335    2    2   18   18
 3.698519890855265e-08    2    2   19    1
 1.730912076316463e-05    2    2   19    2
 1.702707837774253e-06    2    2   19    3
 -1.222167116723722e-06    2    2   19    4
 2.557293837201352e-06    2    2   19    5
 -2.357549493708921e-05    2    2   19    6
 -0.02817748618205099    2    2   19    7
 -1.85516417636547e-06    2    2   19    8
 0.1650791218038594    2    2   19    9
 -2.824390316669406e-05    2    2   19   10
 5.924102925995451e-06    2    2   19   11
 0.005095050920485157    2    2   19   12
 4.301619837966772e-07    2    2   19   13
 1.09242781629014e-05    2    2   19   14
 -0.05284229431573867    2    2   19   15
 -2.859714809998193e-05    2    2   19   16
 -1.053743831591625e-05    2    2   19   17
 1.411799949758985e-07    2    2   19   18
 0.5476954323487357    2    2   19   19
 0.0008575804317586748    3    1    1    1
 2.081151441015725e-08    3    1    2    1
 0.0002961082775135212    3    1    2    2
 5.913201136730498e-07    3    1    3    1
 -3.610879578451143e-05    3    1    3    2
 0.0003139045570004657    3    1    3    3
 -0.0001139692306109204    3    1    4    1
 -5.151589315875269e-08    3    1    4    2
 -3.557938637052102e-05    3    1    4    3
 -1.807698265857565e-05    3    1    4    4
 -6.46195093309218e-05    3    1    5    1
 6.214669139435715e-09    3    1    5    2
 3.30136717235619e-05    3    1    5    3
 1.481599053530346e-05    3    1    5    4
 2.577385326797881e-05    3    1    5    5
 1.574193735155236e-06    3    1    6    1
 -4.038770122192058e-05    3    1    6    2
 9.731875615064246e-06    3    1    6    3
 2.519396526251636e-06    3    1    6    4
 2.78472999905006e-06    3    1    6    5
 4.131611343627444e-06    3    1    6    6
 -1.089645597488199e-10    3    1    7    1
 6.088358874464916e-12    3    1    7    2
 -8.4772262642979e-13    3    1    7    3
 2.612476526103473e-10    3    1    7    4
 1.070611412535673e-09    3    1    7    5
 1.390583748350788e-10    3    1    7    6
 -7.425436503202874e-06    3    1    7    7
 -2.423292123742699e-05    3    1    8    1
 9.06971790485334e-08    3    1    8    2
 1.62596161278417e-05    3    1    8    3
 3.414719211935984e-05    3    1    8    4
 -1.110929764178116e-06    3    1    8    5
 -8.000570134987444e-07    3    1    8    6
 -5.219548360448668e-10    3    1    8    7
 4.797879164915599e-06    3    1    8    8
 -5.80347643170717e-10    3    1    9    1
 3.749770322816177e-09    3    1    9    2
 -8.93355751267452e-10    3    1    9    3
 -9.527210085023057e-10    3    1    9    4
 1.151071529513953e-10    3    1    9    5
 5.212662383332556e-09    3    1    9    6
 -1.036596455793354e-07    3    1    9    7
 -3.636449926193901e-10    3    1    9    8
 -2.307774863880765e-06    3    1    9    9
 -4.695893869909363e-06    3    1   10    1
 2.68394520195622e-05    3    1   10    2
 -6.394549789871936e-06    3    1   10    3
 -6.881909657807565e-06    3    1   10    4
 -8.275264678582803e-07    3    1   10    5
 2.484375457214103e-05    3    1   10    6
 2.454105921753364e-11    3    1   10    7
 -2.083770655054673e-06    3    1   10    8
 5.608127256020728e-10    3    1   10    9
 -5.010308884903936e-06    3    1   10   10
 -1.057926047397346e-05    3    1   11    1
 -8.743600634554448e-08    3    1   11    2
 1.657088995200531e-05    3    1   11    3
 2.969333813036546e-05    3    1   11    4
 4.175351427883295e-06    3    1   11    5
 -1.865713410305936e-06    3    1   11    6
 2.56338311561622e-10    3    1   11    7
 1.723243441869292e-05    3    1   11    8
 -4.037145230550769e-10    3    1   11    9
 -5.394427126985377e-07    3    1   11   10
 4.785954359896809e-06    3    1   11   11
 7.759215787928963e-09    3    1   12    1
 7.515031783802933e-11    3    1   12    2
 -1.32714632618886e-08    3    1   12    3
 -2.494218297032823e-08    3    1   12    4
 -4.011372881497641e-09    3    1   12    5
 1.544928304864451e-09    3    1   12    6
 1.514406414610676e-07    3    1   12    7
 -1.447277738858523e-08    3    1   12    8
 -3.612301195456718e-07    3    1   12    9
 4.660852328445956e-10    3    1   12   10
 9.580952888565404e-10    3    1   12   11
 5.94547485245399e-06    3    1   12   12
 4.278041161322421e-06    3    1   13    1
 2.151488112468715e-05    3    1   13    2
 -5.249996649517412e-06    3    1   13    3
 2.204397941814648e-06    3    1   13    4
 4.947685567674366e-06    3    1   13    5
 2.513099100271735e-05    3    1   13    6
 6.921081976136454e-11    3    1   13    7
 9.058024465647101e-07    3    1   13    8
 6.635086941060461e-10    3    1   13    9
 -3.209719856229869e-06    3    1   13   10
 1.161012805545995e-06    3    1   13   11
 -9.293412265858537e-10    3    1   13   12
 6.840993117344148e-06    3    1   13   13
 8.416705929075751e-05    3    1   14    1
 3.600292139270851e-09    3    1   14    2
 -5.941037904619046e-05    3    1   14    3
 -4.706711804454766e-06    3    1   14    4
 2.125280954754579e-05    3    1   14    5
 1.580506249344079e-06    3    1   14    6
 2.992540008088799e-09    3    1   14    7
 8.035909071438888e-06    3    1   14    8
 2.145651828128075e-10    3    1   14    9
 5.226816877215573e-07    3    1   14   10
 1.115561443986476e-05    3    1   14   11
 -8.646556605431743e-09    3    1   14   12
 -2.55983275971735e-06    3    1   14   13
 -2.876363480516883e-05    3    1   14   14
 3.104601759926816e-08    3    1   15    1
 2.759376171293771e-11    3    1   15    2
 -1.59161300292865e-08    3    1   15    3
 -4.623647327019038e-09    3    1   15    4
 1.644176432006508e-08    3    1   15    5
 1.349927404731714e-09    3    1   15    6
 -1.096944223027383e-05    3    1   15    7
 1.451882197742383e-09    3    1   15    8
 -5.397703647737146e-07    3    1   15    9
 1.065795841623572e-09    3    1   15   10
 -3.814164860064704e-09    3    1   15   11
 -1.844850352454642e-06    3    1   15   12
 1.70493643585198e-10    3    1   15   13
 -5.419909073189992e-09    3    1   15   14
 -8.948519810988568e-06    3    1   15   15
 -2.120440289133927e-05    3    1   16    1
 4.780882351692332e-08    3    1   16    2
 -3.821185308159052e-06    3    1   16    3
 5.717492851065763e-06    3    1   16    4
 -2.591259999322302e-05    3    1   16    5
 -2.124495439711724e-06    3    1   16    6
 -4.491221514767483e-09    3    1   16    7
 3.582522282039656e-06    3    1   16    8