 &FCI NORB=  23,NELEC=26,MS2=0,
  ORBSYM=1,1,1,1,1,1,1,1,1,1,1,1,1,1,1,1,1,1,1,1,1,1,1,
  ISYM=1,
 &END
 3.49833165931802    1    1    1    1
 5.473654483142222e-12    1    1    2    1
 0.3465115763426644    1    1    2    2
 0.06535119134521354    1    1    3    1
 0.3478632693487    1    1    3    3
 -0.2176353320598214    1    1    4    1
 -0.003719603860548589    1    1    4    3
 0.5423926893822287    1    1    4    4
 0.0007854314839508919    1    1    5    2
 0.3287688604545302    1    1    5    5
 -0.1928179663789102    1    1    6    1
 -0.0011361021693129    1    1    6    3
 0.1957756773271611    1    1    6    4
 0.474967391606951    1    1    6    6
 0.4571289113600995    1    1    7    7
 -0.03592896406835287    1    1    8    1
 0.002289905600759464    1    1    8    3
 0.06351245681169189    1    1    8    4
 -0.04117229933377217    1    1    8    6
 0.3825386932957733    1    1    8    8
 0.003361086451596662    1    1    9    2
 -0.07556776341510088    1    1    9    5
 0.3576566641710659    1    1    9    9
 0.2801005171385866    1    1   10   10
 0.02208815944074913    1    1   11    1
 -0.003948840839328222    1    1   11    3
 -0.06163361120219629    1    1   11    4
 0.08190249081538123    1    1   11    6
 -0.139002610571233    1    1   11    8
 0.4786061550179097    1    1   11   11
 -0.005933919794618983    1    1   12    2
 0.1211740853508597    1    1   12    5
 -0.1243319664829977    1    1   12    9
 0.4728641656711942    1    1   12   12
 0.1764587127143063    1    1   13    7
 0.456389631046379    1    1   13   13
 0.1410306720051602    1    1   14    7
 0.07499455131877768    1    1   14   13
 0.4793529409437615    1    1   14   14
 0.04278443467784634    1    1   15    1
 0.006002284557232895    1    1   15    3
 -0.03533396297478569    1    1   15    4
 0.01546604265543055    1    1   15    6
 -0.1312222106724232    1    1   15    8
 0.09991828987299733    1    1   15   11
 0.4819080021184923    1    1   15   15
 0.007040643207990866    1    1   16    2
 0.04950581976246232    1    1   16    5
 -0.1356625598448911    1    1   16    9
 0.1391300485444494    1    1   16   12
 0.5571080260231934    1    1   16   16
 -0.2174526541721301    1    1   17    1
 -1.078786731711738e-12    1    1   17    2
 -0.01292904279884937    1    1   17    3
 0.1466006727054929    1    1   17    4
 0.1231169349668362    1    1   17    6
 0.02228120824622399    1    1   17    8
 -0.0288512508104123    1    1   17   11
 -0.04050252498692352    1    1   17   15
 0.4409784765519812    1    1   17   17
 -0.05234141160670044    1    1   18   10
 0.288140655509472    1    1   18   18
 0.1778005465088134    1    1   19    1
 0.005873475861322684    1    1   19    3
 -0.107877406854473    1    1   19    4
 -0.09295576858064131    1    1   19    6
 -0.07244680773300734    1    1   19    8
 0.1135292006075131    1    1   19   11
 0.1457127120471358    1    1   19   15
 -0.1687685670881221    1    1   19   17
 0.4704122336632336    1    1   19   19
 0.00652530502061538    1    1   20    2
 0.03441723799966057    1    1   20    5
 -0.01303905787765236    1    1   20    9
 0.05576046416775861    1    1   20   12
 0.07275135399729427    1    1   20   16
 0.2775147237372264    1    1   20   20
 -0.001894967464521403    1    1   21    2
 -0.03132206526902019    1    1   21    5
 0.061604230697437    1    1   21    9
 -0.1495290076239672    1    1   21   12
 -0.2112327790849083    1    1   21   16
 -0.07548454270900862    1    1   21   20
 0.4454425315894274    1    1   21   21
 -0.1636673700741878    1    1   22    1
 -0.001668931057397763    1    1   22    3
 0.08610396860748568    1    1   22    4
 0.1498680358100878    1    1   22    6
 -0.05955994932997439    1    1   22    8
 0.1336897862449391    1    1   22   11
 0.1633442414211329    1    1   22   15
 0.1349044614390309    1    1   22   17
 0.01409608715543151    1    1   22   19
 0.5820807127627757    1    1   22   22
 0.1273845390129436    1    1   23    7
 0.1641297599325624    1    1   23   13
 0.2220395317911174    1    1   23   14
 0.5529039746878259    1    1   23   23
 5.473652627701248e-12    2    1    1    1
 0.0006737822687722592    2    1    2    1
 -8.088515952872177e-12    2    1    2    2
 -0.03328976373391312    2    1    3    2
 2.98871981562588e-12    2    1    3    3
 0.002311027526409943    2    1    4    2
 0.0001085395543440552    2    1    5    1
 -0.002975191712518321    2    1    5    3
 0.004119828883664697    2    1    5    4
 -0.001703758367716723    2    1    6    2
 -0.003069233949699475    2    1    6    5
 -0.0001490330495765707    2    1    8    2
 -0.0009685804642013546    2    1    8    5
 -7.801420344096446e-05    2    1    9    1
 -6.793404527519957e-05    2    1    9    3
 -0.0004419645012440891    2    1    9    4
 -0.001579744106263746    2    1    9    6
 0.002260728698351553    2    1    9    8
 0.003345755124376952    2    1   10    7
 -0.0003602801402245539    2    1   11    2
 -0.0002666441152614669    2    1   11    5
 0.003453743427558715    2    1   11    9
 0.0001327325623140893    2    1   12    1
 -0.0004340175917791741    2    1   12    3
 0.001165896300753613    2    1   12    4
 0.001494616482194517    2    1   12    6
 0.003499173823553682    2    1   12    8
 -0.0007843004895766791    2    1   12   11
 -0.00299366097808437    2    1   13   10
 0.001533949237307146    2    1   14   10
 0.0009711478771618229    2    1   15    2
 0.00105692975140318    2    1   15    5
 -0.0021467806639995    2    1   15    9
 0.001224472895637184    2    1   15   12
 0.0001627581463469458    2    1   16    1
 0.001238374196210192    2    1   16    3
 -0.001168290485084225    2    1   16    4
 0.0001670138264546611    2    1   16    6
 -0.002062210399479348    2    1   16    8
 0.001199177737481047    2    1   16   11
 0.0001383841502612714    2    1   16   15
 0.001068177913890854    2    1   17    2
 0.001100715979949453    2    1   17    5
 0.0009332201106841934    2    1   17    9
 -0.002113006425290332    2    1   17   12
 0.003103049364571483    2    1   17   16
 -0.001969998411157811    2    1   18    7
 0.001340217295557811    2    1   18   13
 -0.003731701101384031    2    1   18   14
 0.002888969656128068    2    1   19    2
 0.002486829240812067    2    1   19    5
 0.0006551059144748881    2    1   19    9
 0.001702155336277084    2    1   19   12
 -0.003450432193360188    2    1   19   16
 0.0001009862694627839    2    1   20    1
 -0.002098287011714526    2    1   20    3
 0.001124819997291129    2    1   20    4
 -0.001822603843155595    2    1   20    6
 -4.452842952553746e-05    2    1   20    8
 0.001504951115625545    2    1   20   11
 -0.002236879574809809    2    1   20   15
 0.00379886447504113    2    1   20   17
 0.003187675694774535    2    1   20   19
 -0.0001067674043000236    2    1   21    1
 -0.00213422564109318    2    1   21    3
 0.001463486801060502    2    1   21    4
 -0.0008103651901631168    2    1   21    6
 -0.001310713130309936    2    1   21    8
 -0.00178289693009314    2    1   21   11
 0.003997649767990247    2    1   21   15
 0.001141191124927471    2    1   21   17
 0.001179288979465957    2    1   21   19
 -0.0007896785227510438    2    1   22    2
 -0.0007625405694283567    2    1   22    5
 0.0008677832790108835    2    1   22    9
 0.001046220978462039    2    1   22   12
 -0.001709416378605428    2    1   22   16
 -0.0002071111729893431    2    1   22   20
 -0.003153900706671914    2    1   22   21
 -0.002161805379855816    2    1   23   10
 0.004105676239262087    2    1   23   18
 0.3465115763426649    2    2    1    1
 -8.088509717015619e-12    2    2    2    1
 1.854227243521585    2    2    2    2
 -0.0304575029246808    2    2    3    1
 2.737317877790982e-10    2    2    3    2
 1.853683967997045    2    2    3    3
 0.002392253481168373    2    2    4    1
 -2.876464246914096e-11    2    2    4    2
 -0.1150503949983984    2    2    4    3
 0.4172631936685688    2    2    4    4
 0.1484450636685358    2    2    5    2
 1.229998644169256e-11    2    2    5    3
 -3.334295339829652e-11    2    2    5    4
 0.4561243631689585    2    2    5    5
 -0.002902375344902598    2    2    6    1
 2.109874308684617e-11    2    2    6    2
 0.08506989508971551    2    2    6    3
 -0.05874153817940415    2    2    6    4
 2.515982387707449e-11    2    2    6    5
 0.3592937183789114    2    2    6    6
 0.3584773428698715    2    2    7    7
 0.00177074892752752    2    2    8    1
 1.875050163963402e-12    2    2    8    2
 0.008912598464558316    2    2    8    3
 0.03258033475621999    2    2    8    4
 7.973102213176819e-12    2    2    8    5
 0.02291260596238711    2    2    8    6
 0.4046969771788423    2    2    8    8
 0.002373898995165424    2    2    9    2
 3.31641398371163e-12    2    2    9    4
 0.00141384373535775    2    2    9    5
 1.277170036395603e-11    2    2    9    6
 -1.835141066885981e-11    2    2    9    8
 0.4157221321304665    2    2    9    9
 -2.715026467536852e-11    2    2   10    7
 0.4178422009846479    2    2   10   10
 -0.003154571142539465    2    2   11    1
 4.667040733909167e-12    2    2   11    2
 0.01824404371994832    2    2   11    3
 -0.0523042616420302    2    2   11    4
 1.982787198318015e-12    2    2   11    5
 -0.04763272676239057    2    2   11    6
 0.009990165631506068    2    2   11    8
 -2.800724582807668e-11    2    2   11    9
 0.3854663930436876    2    2   11   11
 0.02030971237924361    2    2   12    2
 2.115553941067511e-12    2    2   12    3
 -9.051634550401311e-12    2    2   12    4
 0.02964191925310178    2    2   12    5
 -1.202272656430914e-11    2    2   12    6
 -2.837538038737153e-11    2    2   12    8
 -0.01045964624981402    2    2   12    9
 6.274840889941569e-12    2    2   12   11
 0.4347107968939924    2    2   12   12
 -0.06377571507340619    2    2   13    7
 2.433532195200705e-11    2    2   13   10
 0.3337288134649352    2    2   13   13
 0.08832531884067057    2    2   14    7
 -1.240913274913602e-11    2    2   14   10
 -0.02675958998651957    2    2   14   13
 0.3596342764465589    2    2   14   14
 -0.00252167895297536    2    2   15    1
 -1.234813370532082e-11    2    2   15    2
 -0.04934226548306287    2    2   15    3
 0.03971111218127502    2    2   15    4
 -8.452409779036163e-12    2    2   15    5
 0.01408067878391043    2    2   15    6
 -0.05930385993715401    2    2   15    8
 1.736016799064322e-11    2    2   15    9
 -0.07845487055685725    2    2   15   11
 -9.87429094653075e-12    2    2   15   12
 0.4307808827714679    2    2   15   15
 -0.05982168897310057    2    2   16    2
 -5.535002421945979e-12    2    2   16    3
 9.603014564096846e-12    2    2   16    4
 -0.04570092279061607    2    2   16    5
 -1.052311883464885e-12    2    2   16    6
 1.672031426074722e-11    2    2   16    8
 -0.02795085615944074    2    2   16    9
 -9.710481117114478e-12    2    2   16   11
 -0.1231683751029191    2    2   16   12
 -1.140386396425441e-12    2    2   16   15
 0.4721627059312572    2    2   16   16
 0.001445338686728618    2    2   17    1
 -1.306714227111445e-11    2    2   17    2
 -0.05420883752333369    2    2   17    3
 0.02968452152198697    2    2   17    4
 -9.120578424448578e-12    2    2   17    5
 -0.05686545202060835    2    2   17    6
 -0.074963546922189    2    2   17    8
 -7.752913762371083e-12    2    2   17    9
 0.05430629699557146    2    2   17   11
 1.738930646612985e-11    2    2   17   12
 -0.05999830153668829    2    2   17   15
 -2.498641788264977e-11    2    2   17   16
 0.433888447021358    2    2   17   17
 1.593949972011899e-11    2    2   18    7
 -0.1309839305387501    2    2   18   10
 -1.087708222102801e-11    2    2   18   13
 3.026878747647288e-11    2    2   18   14
 0.4613371932094528    2    2   18   18
 0.0004823121390902524    2    2   19    1
 -3.607810679709649e-11    2    2   19    2
 -0.1430535216948987    2    2   19    3
 0.09532683197816089    2    2   19    4
 -2.041502947594531e-11    2    2   19    5
 -0.0818768232545839    2    2   19    6
 0.05127641610083027    2    2   19    8
 -5.396944176283558e-12    2    2   19    9
 0.008621975560729318    2    2   19   11
 -1.376180983406194e-11    2    2   19   12
 0.02444839771765516    2    2   19   15
 2.771932770123664e-11    2    2   19   16
 -0.01549471837640385    2    2   19   17
 0.4746293145181404    2    2   19   19
 0.1043516938366653    2    2   20    2
 8.30128731054737e-12    2    2   20    3
 -9.084865672248643e-12    2    2   20    4
 0.09923553540013505    2    2   20    5
 1.494939241841742e-11    2    2   20    6
 0.08791165724092165    2    2   20    9
 -1.228086295851361e-11    2    2   20   11
 -0.03153866923352006    2    2   20   12
 1.823609839524121e-11    2    2   20   15
 0.005104027193451514    2    2   20   16
 -3.108228951997916e-11    2    2   20   17
 -2.60755445014027e-11    2    2   20   19
 0.4561915948359581    2    2   20   20
 0.1077080050296613    2    2   21    2
 8.756409205850583e-12    2    2   21    3
 -1.201696825815085e-11    2    2   21    4
 0.09754432519152152    2    2   21    5
 6.424207086436207e-12    2    2   21    6
 1.068863330093081e-11    2    2   21    8
 -0.09289504257838625    2    2   21    9
 1.437816077136389e-11    2    2   21   11
 -0.03121451571806599    2    2   21   12
 -3.235499476846038e-11    2    2   21   15
 -0.003049061642442202    2    2   21   16
 -9.576618578005514e-12    2    2   21   17
 -9.400770092926614e-12    2    2   21   19
 -0.01722956816576778    2    2   21   20
 0.460738940954694    2    2   21   21
 -0.004416420119067491    2    2   22    1
 9.863504673126352e-12    2    2   22    2
 0.04054140707512465    2    2   22    3
 -0.01536972484826145    2    2   22    4
 6.315955679465912e-12    2    2   22    5
 0.03604004153193625    2    2   22    6
 0.06724860448752097    2    2   22    8
 -7.121593787774716e-12    2    2   22    9
 0.04906461296922732    2    2   22   11
 -8.409118352006601e-12    2    2   22   12
 -0.05896782542425166    2    2   22   15
 1.414256136245823e-11    2    2   22   16
 -0.06321989074779921    2    2   22   17
 0.02941500379720739    2    2   22   19
 1.871646067297394e-12    2    2   22   20
 2.547044172795943e-11    2    2   22   21
 0.3411025479268417    2    2   22   22
 -0.05394343190616028    2    2   23    7
 1.754447975788054e-11    2    2   23   10
 0.09132852088398767    2    2   23   13
 -0.08829832265299616    2    2   23   14
 -3.334271747590378e-11    2    2   23   18
 0.3997204850062416    2    2   23   23
 0.06535119134521358    3    1    1    1
 -0.03045750292468082    3    1    2    2
 0.001970816853023767    3    1    3    1
 2.751461259758959e-12    3    1    3    2
 -0.03041845879125597    3    1    3    3
 -0.004594464153532652    3    1    4    1
 0.002226120164946286    3    1    4    3
 0.002550311021054379    3    1    4    4
 -0.002965024097798546    3    1    5    2
 -0.002600598266464291    3    1    5    5
 -0.003958238722915152    3    1    6    1
 -0.001743722484935134    3    1    6    3
 0.005210579208221241    3    1    6    4
 0.002398034661765362    3    1    6    6
 0.002010945857653939    3    1    7    7
 -0.0008024553595916017    3    1    8    1
 -0.0001459425039415498    3    1    8    3
 0.0006057157840898752    3    1    8    4
 -0.001310384328009786    3    1    8    6
 -0.0004635362732567272    3    1    8    8
 7.15982768278316e-06    3    1    9    2
 -0.001561594325970087    3    1    9    5
 -0.00119175510598446    3    1    9    9
 -0.002823208667941955    3    1   10   10
 0.0005490683319797032    3    1   11    1
 -0.0004274225098852606    3    1   11    3
 -0.0001574619640737142    3    1   11    4
 0.002658329197575368    3    1   11    6
 -0.003041348993550844    3    1   11    8
 0.001896736879025626    3    1   11   11
 -0.0005030942365318022    3    1   12    2
 0.001845338439788864    3    1   12    5
 -0.0023260838500239    3    1   12    9
 0.000767041696623689    3    1   12   12
 0.004917060459076696    3    1   13    7
 0.002510286788544195    3    1   13   13
 0.001069669777417571    3    1   14    7
 0.002080669190895257    3    1   14   13
 0.002440865983385366    3    1   14   14
 0.0009762970515763033    3    1   15    1
 0.001091564532116199    3    1   15    3
 -0.001531632784031133    3    1   15    4
 4.426043915035024e-05    3    1   15    6
 -0.001462391582783502    3    1   15    8
 0.003651898614141372    3    1   15   11
 0.001029506601445185    3    1   15   15
 0.001312827736227716    3    1   16    2
 0.001969585031072339    3    1   16    5
 -0.002205531870501112    3    1   16    9
 0.005383407603735075    3    1   16   12
 0.00173046555057532    3    1   16   16
 -0.004573928753567088    3    1   17    1
 0.0008587132955250008    3    1   17    3
 0.002419102932527388    3    1   17    4
 0.003673386665055815    3    1   17    6
 0.001977258252081189    3    1   17    8
 -0.001684185430731457    3    1   17   11
 0.0004118987253350292    3    1   17   15
 0.0001774633145027018    3    1   17   17
 0.001614225516789474    3    1   18   10
 -0.003551889956436486    3    1   18   18
 0.00372542567355741    3    1   19    1
 0.002982518607982365    3    1   19    3
 -0.004158426442569091    3    1   19    4
 -0.0002354221165187363    3    1   19    6
 -0.00253541403565476    3    1   19    8
 0.00214943595573411    3    1   19   11
 0.002458717136121782    3    1   19   15
 -0.003110685544488775    3    1   19   17
 -0.0001033922101699795    3    1   19   19
 -0.001989206432055999    3    1   20    2
 -0.001300501763697653    3    1   20    5
 -0.002057914803966202    3    1   20    9
 0.001773378103674992    3    1   20   12
 0.001398470342835488    3    1   20   16
 -0.003623239396832403    3    1   20   20
 -0.002192074420985286    3    1   21    2
 -0.002637783977342229    3    1   21    5
 0.003173508930956722    3    1   21    9
 -0.002434271197289778    3    1   21   12
 -0.004255635552567822    3    1   21   16
 -0.001179802911445495    3    1   21   20
 -0.0003125044636111587    3    1   21   21
 -0.003295740343865039    3    1   22    1
 -0.0008564140716503855    3    1   22    3
 0.002093868569880714    3    1   22    4
 0.00236138270053417    3    1   22    6
 -0.002597738893933215    3    1   22    8
 0.001736541985213379    3    1   22   11
 0.004561781361289521    3    1   22   15
 0.004066459253234015    3    1   22   17
 -0.000329747780383733    3    1   22   19
 0.004966834316914817    3    1   22   22
 0.003709170881815709    3    1   23    7
 0.001487419892088656    3    1   23   13
 0.006350970195185658    3    1   23   14
 0.003130438482417698    3    1   23   23
 -0.03328976373391312    3    2    2    1
 2.737319897117528e-10    3    2    2    2
 2.751464092237135e-12    3    2    3    1
 1.646027041655715    3    2    3    2
 -2.738242003475812e-10    3    2    3    3
 -0.115394220370555    3    2    4    2
 9.595978471468175e-12    3    2    4    3
 -0.004655459431130408    3    2    5    1
 1.231785506927707e-11    3    2    5    2
 0.1481789009832212    3    2    5    3
 -0.2004537053527612    3    2    5    4
 0.0843261481900124    3    2    6    2
 -7.01687509095314e-12    3    2    6    3
 0.1512790677546619    3    2    6    5
 0.006819548486769503    3    2    8    2
 0.04793306914765528    3    2    8    5
 0.002703665184112208    3    2    9    1
 0.002631721958075591    3    2    9    3
 0.01992860186388156    3    2    9    4
 0.07677826875752733    3    2    9    6
 -0.1103314174284015    3    2    9    8
 -0.1632281641723591    3    2   10    7
 0.01890741672575008    3    2   11    2
 -1.567441028317226e-12    3    2   11    3
 0.01188601412004268    3    2   11    5
 -0.1683756749050743    3    2   11    9
 -0.004735075438304708    3    2   12    1
 1.899540214115062e-12    3    2   12    2
 0.02289973224449347    3    2   12    3
 -0.05449603004946164    3    2   12    4
 -0.07235477571439683    3    2   12    6
 -0.1705845018094078    3    2   12    8
 0.03765522710333243    3    2   12   11
 0.1463196004848437    3    2   13   10
 -0.07459197830108569    3    2   14   10
 -0.04954302275778237    3    2   15    2
 4.117355423076917e-12    3    2   15    3
 -0.05080049356609005    3    2   15    5
 0.1043792874174705    3    2   15    9
 -0.0594280475245525    3    2   15   12
 -0.005148886989726948    3    2   16    1
 -5.255433732224605e-12    3    2   16    2
 -0.0631675550542375    3    2   16    3
 0.05772060701841251    3    2   16    4
 -0.006292045953861075    3    2   16    6
 0.1005053814199955    3    2   16    8
 -0.05824027928235803    3    2   16   11
 -0.00686900687823544    3    2   16   15
 -0.05141196398960199    3    2   17    2
 4.269462082864047e-12    3    2   17    3
 -0.05478595899334893    3    2   17    5
 -0.04656333802149362    3    2   17    9
 0.1045854383009135    3    2   17   12
 -0.1502425239907114    3    2   17   16
 0.09583093659249128    3    2   18    7
 -0.06539721605133321    3    2   18   13
 0.1819582638329699    3    2   18   14
 -0.1444492946706146    3    2   19    2
 1.186307794348845e-11    3    2   19    3
 -0.1218609007038394    3    2   19    5
 -0.03197719626792873    3    2   19    9
 -0.08303798064064728    3    2   19   12
 0.1667069603023415    3    2   19   16
 -0.004087261352420031    3    2   20    1
 8.396729521065118e-12    3    2   20    2
 0.1031525445663175    3    2   20    3
 -0.05531830958565035    3    2   20    4
 0.09050824988577566    3    2   20    6
 0.002777089078415534    3    2   20    8
 -0.07390174880551691    3    2   20   11
 0.1095020331527945    3    2   20   15
 -0.1867385323320899    3    2   20   17
 -0.1569349887990315    3    2   20   19
 0.002949357981805795    3    2   21    1
 8.830465763991213e-12    3    2   21    2
 0.1067726609722683    3    2   21    3
 -0.07241324434543543    3    2   21    4
 0.03879107412724835    3    2   21    6
 0.06419640916266185    3    2   21    8
 0.08650839756148762    3    2   21   11
 -0.194589796954856    3    2   21   15
 -0.05758249870946533    3    2   21   17
 -0.05665895675413465    3    2   21   19
 0.03901326888638605    3    2   22    2
 -3.243103302455561e-12    3    2   22    3
 0.03795408109271818    3    2   22    5
 -0.04276101681831722    3    2   22    9
 -0.05047082141080809    3    2   22   12
 0.08500341549934377    3    2   22   16
 0.01110005520074901    3    2   22   20
 0.1530402653440764    3    2   22   21
 0.1054940604753642    3    2   23   10
 -0.2004807074766305    3    2   23   18
 0.3478632693487    3    3    1    1
 2.988718776316453e-12    3    3    2    1
 1.853683967997045    3    3    2    2
 -0.03041845879125598    3    3    3    1
 -2.73825012252378e-10    3    3    3    2
 1.853141477976593    3    3    3    3
 0.002296473773151539    3    3    4    1
 9.624716930563271e-12    3    3    4    2
 -0.1150140105416944    3    3    4    3
 0.4173132872708738    3    3    4    4
 0.1483952359045858    3    3    5    2
 -3.698810138383357e-11    3    3    5    3
 3.333876230637856e-11    3    3    5    4
 0.456073402155233    3    3    5    5
 -0.002984953640501357    3    3    6    1
 -6.955119423099343e-12    3    3    6    2
 0.08504012217343272    3    3    6    3
 -0.05863607167062499    3    3    6    4
 -2.516366282012683e-11    3    3    6    5
 0.3593435604741548    3    3    6    6
 0.3585165150978622    3    3    7    7
 0.001753723960022354    3    3    8    1
 0.008905335659682411    3    3    8    3
 0.0325855776813803    3    3    8    4
 -7.971986785981766e-12    3    3    8    5
 0.02288996859043424    3    3    8    6
 0.4046886618893226    3    3    8    8
 0.002377218519600398    3    3    9    2
 -3.312907240204943e-12    3    3    9    4
 0.00137724879730489    3    3    9    5
 -1.276890225498928e-11    3    3    9    6
 1.835071417738421e-11    3    3    9    8
 0.4156977580397089    3    3    9    9
 2.714820382387906e-11    3    3   10    7
 0.4177828013114815    3    3   10   10
 -0.00314256835803116    3    3   11    1
 -1.623278930978217e-12    3    3   11    2
 0.01823548054620885    3    3   11    3
 -0.05230771455187144    3    3   11    4
 -1.971103835707311e-12    3    3   11    5
 -0.04757612580349369    3    3   11    6
 0.009931081274402905    3    3   11    8
 2.800354219345547e-11    3    3   11    9
 0.3855040493835381    3    3   11   11
 0.02030552543187946    3    3   12    2
 -5.501806577326834e-12    3    3   12    3
 9.076682547931592e-12    3    3   12    4
 0.02967290297529291    3    3   12    5
 1.204629365009202e-11    3    3   12    6
 2.837016353177818e-11    3    3   12    8
 -0.01050590650740412    3    3   12    9
 -6.251287681946494e-12    3    3   12   11
 0.4347255901926889    3    3   12   12
 -0.0636749998491227    3    3   13    7
 -2.433839935145343e-11    3    3   13   10
 0.3337787186598993    3    3   13   13
 0.08834715449448245    3    3   14    7
 1.240410031633221e-11    3    3   14   10
 -0.02671851780095367    3    3   14   13
 0.3596830428042088    3    3   14   14
 -0.002500627185928274    3    3   15    1
 4.134341997984008e-12    3    3   15    2
 -0.0493207387096329    3    3   15    3
 0.03968282216155698    3    3   15    4
 8.446540342155195e-12    3    3   15    5
 0.01408113266752098    3    3   15    6
 -0.05933325603048323    3    3   15    8
 -1.736193046969481e-11    3    3   15    9
 -0.07838238589955859    3    3   15   11
 9.894701594528876e-12    3    3   15   12
 0.430804123558532    3    3   15   15
 -0.05980592714441574    3    3   16    2
 1.54766017235468e-11    3    3   16    3
 -9.597969662968053e-12    3    3   16    4
 -0.04565665140172251    3    3   16    5
 1.04069595822931e-12    3    3   16    6
 -1.671307048919241e-11    3    3   16    8
 -0.02799357932035933    3    3   16    9
 9.663326562547869e-12    3    3   16   11
 -0.1230551854259599    3    3   16   12
 1.144714531498003e-12    3    3   16   15
 0.4721932208722261    3    3   16   16
 0.001349780379860009    3    3   17    1
 4.036693356424155e-12    3    3   17    2
 -0.05419126366695513    3    3   17    3
 0.02973669960691881    3    3   17    4
 9.104247303964863e-12    3    3   17    5
 -0.05679344602824295    3    3   17    6
 -0.07492411006754592    3    3   17    8
 7.736514987671805e-12    3    3   17    9
 0.05427280438009777    3    3   17   11
 -1.740145256622777e-11    3    3   17   12
 -0.05998758826455269    3    3   17   15
 2.499202667732847e-11    3    3   17   16
 0.4338954206478493    3    3   17   17
 -1.593899144614053e-11    3    3   18    7
 -0.1309527521544676    3    3   18   10
 1.087752631023786e-11    3    3   18   13
 -3.02602144730546e-11    3    3   18   14
 0.4612650146506526    3    3   18   18
 0.0005608908204160184    3    3   19    1
 1.197735629481032e-11    3    3   19    2
 -0.1430076607599401    3    3   19    3
 0.09524093144715359    3    3   19    4
 2.012241632001754e-11    3    3   19    5
 -0.08188109442404552    3    3   19    6
 0.05122090973607236    3    3   19    8
 5.240457373600904e-12    3    3   19    9
 0.008664814354477959    3    3   19   11
 1.386102392803359e-11    3    3   19   12
 0.02450016319515566    3    3   19   15
 -2.773625600027696e-11    3    3   19   16
 -0.01555496232988588    3    3   19   17
 0.4746206288643396    3    3   19   19
 0.1043197886574506    3    3   20    2
 -2.601011398449538e-11    3    3   20    3
 9.316921800034406e-12    3    3   20    4
 0.0992102523892735    3    3   20    5
 -1.515850726191426e-11    3    3   20    6
 0.0878694523050661    3    3   20    9
 1.230284190495423e-11    3    3   20   11
 -0.03150567615613643    3    3   20   12
 -1.819008312031745e-11    3    3   20   15
 0.005137076121060157    3    3   20   16
 3.10369091538476e-11    3    3   20   17
 2.612954991265681e-11    3    3   20   19
 0.4561179879568164    3    3   20   20
 0.1076664217713064    3    3   21    2
 -2.675849121544938e-11    3    3   21    3
 1.207156304170592e-11    3    3   21    4
 0.09749565198981393    3    3   21    5
 -6.479780579292382e-12    3    3   21    6
 -1.066657195512508e-11    3    3   21    8
 -0.0928318319934027    3    3   21    9
 -1.439917521155187e-11    3    3   21   11
 -0.03126475337158971    3    3   21   12
 3.23760785975874e-11    3    3   21   15
 -0.003133988170699336    3    3   21   16
 9.578313402841543e-12    3    3   21   17
 9.447112796906465e-12    3    3   21   19
 -0.01725065442351391    3    3   21   20
 0.4607404609043159    3    3   21   21
 -0.004484511380925869    3    3   22    1
 -3.116055632992301e-12    3    3   22    2
 0.04052214810878295    3    3   22    3
 -0.01532953453261663    3    3   22    4
 -6.309641448643682e-12    3    3   22    5
 0.03609109020135811    3    3   22    6
 0.06719620627540175    3    3   22    8
 7.103013273043746e-12    3    3   22    9
 0.04910033965781418    3    3   22   11
 8.380100771838463e-12    3    3   22   12
 -0.05887747645954954    3    3   22   15
 -1.4134047773319e-11    3    3   22   16
 -0.06313925274578391    3    3   22   17
 0.02940432167594881    3    3   22   19
 -1.820698323010128e-12    3    3   22   20
 -2.543892527184788e-11    3    3   22   21
 0.3412067416035878    3    3   22   22
 -0.05386930912283644    3    3   23    7
 -1.754851819413261e-11    3    3   23   10
 0.09135939526405111    3    3   23   13
 -0.08816975461246723    3    3   23   14
 3.334788001296829e-11    3    3   23   18
 0.3997843209555962    3    3   23   23
 -0.2176353320598211    4    1    1    1
 0.002392253481168399    4    1    2    2
 -0.004594464153532642    4    1    3    1
 0.002296473773151537    4    1    3    3
 0.02128269536858058    4    1    4    1
 0.0002178857656896114    4    1    4    3
 -0.003452572711996254    4    1    4    4
 0.0002959698927453543    4    1    5    2
 -5.11300297722531e-05    4    1    5    5
 0.01863358843165143    4    1    6    1
 0.0005608155444626191    4    1    6    3
 -0.003585210697603379    4    1    6    4