 &FCI NORB=   9,NELEC=10,MS2=0,
  ORBSYM=1,1,1,1,1,1,1,1,1,
  ISYM=1,
 &END
 3.501063443412559    1    1    1    1
 -0.2934616271309269    1    1    2    1
 0.7083175605674894    1    1    2    2
 0.633819511390104    1    1    3    3
 0.6338195113901035    1    1    4    4
 0.6338195113901033    1    1    5    5
 0.0283873849844963    1    1    6    3
 0.2375809761400015    1    1    6    4
 -0.07418460463019186    1    1    6    5
 0.731236002097732    1    1    6    6
 0.1231490709891272    1    1    7    3
 0.05147821517507871    1    1    7    4
 0.2119863653420546    1    1    7    5
 0.7312360020977324    1    1    7    7
 -0.2162923533144175    1    1    8    3
 0.0604912601355279    1    1    8    4
 0.1109610055783512    1    1    8    5
 0.7312360020977318    1    1    8    8
 -0.3270683301970059    1    1    9    1
 0.2876698115130213    1    1    9    2
 0.6943656199122608    1    1    9    9
 -0.2934616271309273    2    1    1    1
 0.03862767839289348    2    1    2    1
 -0.009195714533423419    2    1    2    2
 -0.003928190335977074    2    1    3    3
 -0.003928190335977068    2    1    4    4
 -0.003928190335977066    2    1    5    5
 -0.0006185183430369841    2    1    6    3
 -0.005176531469153575    2    1    6    4
 0.001616370749182416    2    1    6    5
 -0.00846662593883531    2    1    6    6
 -0.002683232688616396    2    1    7    3
 -0.001121632738273728    2    1    7    4
 -0.004618863467325707    2    1    7    5
 -0.008466625938835312    2    1    7    7
 0.004712684456728483    2    1    8    3
 -0.001318013406577608    2    1    8    4
 -0.002417673109006772    2    1    8    5
 -0.00846662593883532    2    1    8    8
 0.04386685835775523    2    1    9    1
 -0.01039941845846655    2    1    9    2
 -0.01225076956929748    2    1    9    9
 0.7083175605674892    2    2    1    1
 -0.009195714533423403    2    2    2    1
 0.5037027172733293    2    2    2    2
 0.4854769549322933    2    2    3    3
 0.485476954932293    2    2    4    4
 0.4854769549322931    2    2    5    5
 0.009159382971786733    2    2    6    3
 0.07665711894440627    2    2    6    4
 -0.02393616758956869    2    2    6    5
 0.4933016475506389    2    2    6    6
 0.0397348859158811    2    2    7    3
 0.01660979649059239    2    2    7    4
 0.06839884357172722    2    2    7    5
 0.4933016475506393    2    2    7    7
 -0.0697881998978673    2    2    8    3
 0.0195179167904993    2    2    8    4
 0.0358023236582638    2    2    8    5
 0.4933016475506387    2    2    8    8
 -0.009693247551206841    2    2    9    1
 0.0876940201626113    2    2    9    2
 0.4701505523735132    2    2    9    9
 0.008793530356108062    3    1    3    1
 0.01380775877242544    3    1    3    2
 0.00389490943945116    3    1    3    3
 -0.00105971977155343    3    1    4    3
 -0.001357545042826506    3    1    4    4
 -0.001620648946327664    3    1    5    3
 0.000574175405492923    3    1    5    4
 -0.002537364396624642    3    1    5    5
 0.001525409144347646    3    1    6    1
 0.001112035306380817    3    1    6    2
 7.606827448200023e-05    3    1    6    3
 0.001433203012502342    3    1    6    4
 -0.001010485557184391    3    1    6    5
 0.000182400277635037    3    1    6    6
 0.006617471778655449    3    1    7    1
 0.004824189158765388    3    1    7    2
 -0.0002957271651321012    3    1    7    3
 0.0002852960432578837    3    1    7    4
 0.002567226483247573    3    1    7    5
 -5.724262187710352e-05    3    1    7    6
 0.0002281992855643611    3    1    7    7
 -0.01162256874941023    3    1    8    1
 -0.008472944355994294    3    1    8    2
 0.003939710114461884    3    1    8    3
 -0.000764465626097104    3    1    8    4
 -0.0003761319302649564    3    1    8    5
 -1.829194130346674e-05    3    1    8    6
 0.0001598897279585924    3    1    8    7
 -0.0004105995631987548    3    1    8    8
 0.006788480188298725    3    1    9    3
 0.001597433283584883    3    1    9    6
 0.006929924152859725    3    1    9    7
 -0.01217134316380503    3    1    9    8
 0.01380775877242544    3    2    3    1
 0.1082126563003131    3    2    3    2
 0.0576094715575836    3    2    3    3
 -0.01567427869309309    3    2    4    3
 -0.02007940203710416    3    2    4    4
 -0.02397096282460626    3    2    5    3
 0.008492608674482994    3    2    5    4
 -0.03753006952047915    3    2    5    5
 0.002163689600826478    3    2    6    1
 0.002101435556037811    3    2    6    2
 0.001129575164295447    3    2    6    3
 0.02128233536697662    3    2    6    4
 -0.01500519627986009    3    2    6    5
 -0.01550996281524595    3    2    6    6
 0.009386435714178699    3    2    7    1
 0.009116367591129255    3    2    7    2
 -0.004391397904251554    3    2    7    3
 0.004236501052900075    3    2    7    4
 0.03812200679376508    3    2    7    5
 0.00486748676192    3    2    7    6
 -0.01940436977099804    3    2    7    7
 -0.01648582692136957    3    2    8    1
 -0.0160114939083766    3    2    8    2
 0.0585026902492038    3    2    8    3
 -0.01135192550476006    3    2    8    4
 -0.005585367747832534    3    2    8    5
 0.001555410622818927    3    2    8    6
 -0.0135958331167932    3    2    8    7
 0.03491433258624867    3    2    8    8
 -0.01043453971988944    3    2    9    3
 0.01093719452845113    3    2    9    6
 0.04744732021430599    3    2    9    7
 -0.08333390146744085    3    2    9    8
 0.6338195113901038    3    3    1    1
 -0.003928190335977027    3    3    2    1
 0.4854769549322933    3    3    2    2
 0.003894909439451163    3    3    3    1
 0.05760947155758359    3    3    3    2
 0.5466529641990099    3    3    3    3
 -0.001059719771553433    3    3    4    1
 -0.015674278693093    3    3    4    2
 -0.01065768954639493    3    3    4    3
 0.4276465362697832    3    3    4    4
 -0.001620648946327662    3    3    5    1
 -0.02397096282460623    3    3    5    2
 -0.008270042456525602    3    3    5    3
 -0.001528020958900762    3    3    5    4
 0.4456048717062412    3    3    5    5
 -0.0001009717480753449    3    3    6    1
 0.0004358462296453654    3    3    6    2
 0.01003843907964606    3    3    6    3
 0.08516545910771775    3    3    6    4
 -0.01925771642563402    3    3    6    5
 0.4445768211919178    3    3    6    6
 0.000392543264850895    3    3    7    1
 -0.00169441953040677    3    3    7    2
 0.0213439766009193    3    3    7    3
 0.02433673350295796    3    3    7    4
 0.06537512251127846    3    3    7    5
 -0.003412613317430743    3    3    7    6
 0.4685548056928018    3    3    7    7
 -0.005229504939817501    3    3    8    1
 0.02257324503518535    3    3    8    2
 -0.01681768368694922    3    3    8    3
 0.01363109538945028    3    3    8    4
 0.02584641580415175    3    3    8    5
 -0.006803794154280951    3    3    8    6
 -0.03113948014591324    3    3    8    7
 0.5254867216485424    3    3    8    8
 -0.003742104442385085    3    3    9    1
 0.06893027045753966    3    3    9    2
 -0.03042703610164157    3    3    9    3
 0.008278531824151399    3    3    9    4
 0.01266051105027565    3    3    9    5
 -0.001186207773672336    3    3    9    6
 0.004611565919615986    3    3    9    7
 -0.06143579298472017    3    3    9    8
 0.4598429759862274    3    3    9    9
 -0.001059719771553429    4    1    3    3
 0.008793530356108055    4    1    4    1
 0.01380775877242543    4    1    4    2
 -0.001357545042826494    4    1    4    3
 0.001592495927019984    4    1    4    4
 0.0005741754054929249    4    1    5    3
 0.003414800680768895    4    1    5    4
 -0.0005327761554665679    4    1    5    5
 0.01276652265521907    4    1    6    1
 0.009306895782629866    4    1    6    2
 0.001433203012502348    4    1    6    3
 -0.0003136326691861189    4    1    6    4
 -0.00314457824549578    4    1    6    5
 8.71117442569477e-05    4    1    6    6
 0.002766205489010252    4    1    7    1
 0.002016585635324302    4    1    7    2
 0.0002852960432578788    4    1    7    3
 -0.00231619789791388    4    1    7    4
 -0.0004843377650426561    4    1    7    5
 -0.0002211108528918778    4    1    7    6
 -8.157443119350999e-05    4    1    7    7
 0.003250525591358337    4    1    8    1
 0.002369658812705429    4    1    8    2
 -0.0007644656260970976    4    1    8    3
 -0.002788289249273331    4    1    8    4
 -8.434647187825966e-05    4    1    8    5
 -0.0002960729121484098    4    1    8    6
 -0.0001116176278217386    4    1    8    7
 -5.53731306390863e-06    4    1    8    8
 0.006788480188298626    4    1    9    4
 0.0133693103130104    4    1    9    6
 0.002896815410969563    4    1    9    7
 0.003404003304963055    4    1    9    8
 -0.015674278693093    4    2    3    3
 0.01380775877242543    4    2    4    1
 0.1082126563003132    4    2    4    2
 -0.02007940203710417    4    2    4    3
 0.02355455248432009    4    2    4    4
 0.008492608674483006    4    2    5    3
 0.05050819942075312    4    2    5    4
 -0.007880273791227039    4    2    5    5
 0.01810844809090632    4    2    6    1
 0.01758742874595286    4    2    6    2
 0.02128233536697661    4    2    6    3
 -0.004657285527192665    4    2    6    4
 -0.04669538664413802    4    2    6    5
 -0.007407334745989185    4    2    6    6
 0.003923675213629485    4    2    7    1
 0.003810782563781531    4    2    7    2
 0.004236501052900061    4    2    7    3
 -0.03439436005205304    4    2    7    4
 -0.007192169327450955    4    2    7    5
 0.01880162218428488    4    2    7    6
 0.006936482832659671    4    2    7    7
 0.00461065049026579    4    2    8    1
 0.004477992071046799    4    2    8    2
 -0.01135192550476005    4    2    8    3
 -0.04140467636860389    4    2    8    4
 -0.00125250218278582    4    2    8    5
 0.0251758380938707    4    2    8    6
 0.009491132795886781    4    2    8    7
 0.0004708519133264956    4    2    8    8
 -0.01043453971989076    4    2    9    4
 0.09153605919396043    4    2    9    6
 0.01983371323758181    4    2    9    7
 0.02330629185234146    4    2    9    8
 -0.001059719771553433    4    3    3    1
 -0.01567427869309309    4    3    3    2
 -0.01065768954639493    4    3    3    3
 -0.001357545042826497    4    3    4    1
 -0.02007940203710417    4    3    4    2
 0.02293466417992764    4    3    4    3
 0.003643696630941903    4    3    4    4
 0.000574175405492923    4    3    5    1
 0.008492608674482991    4    3    5    2
 -0.001528020958900635    4    3    5    3
 -0.01634273885358688    4    3    5    4
 0.007013992915453401    4    3    5    5
 -0.001902409572249919    4    3    6    1
 0.008211782554159022    4    3    6    2
 0.002903121474388495    4    3    6    3
 -0.007399690467512679    4    3    6    4
 0.01639704819818736    4    3    6    5
 0.01456834684539595    4    3    6    6
 -0.0003786971691269239    4    3    7    1
 0.001634652627965969    4    3    7    2
 0.006512417826276646    4    3    7    3
 0.01322724940220803    4    3    7    4
 -0.001686753852524457    4    3    7    5
 -0.003062756992366579    4    3    7    6
 -0.000182354504299537    4    3    7    7
 0.001014738813731592    4    3    8    1
 -0.004380136963763291    4    3    8    2
 -0.007313984246058906    4    3    8    3
 0.00386663534094696    4    3    8    4
 -0.0004432087761251911    4    3    8    5
 -0.01788615037505304    4    3    8    6
 0.001744518184981843    4    3    8    7
 -0.0143859923410959    4    3    8    8
 0.008278531824149945    4    3    9    3
 0.010605143115601    4    3    9    4
 -0.004485458792610126    4    3    9    5
 -0.02234935084638764    4    3    9    6
 -0.004448903128332115    4    3    9    7
 0.01192106794264702    4    3    9    8
 0.6338195113901034    4    4    1    1
 -0.003928190335977063    4    4    2    1
 0.4854769549322931    4    4    2    2
 -0.001357545042826506    4    4    3    1
 -0.02007940203710414    4    4    3    2
 0.4276465362697832    4    4    3    3
 0.001592495927019982    4    4    4    1
 0.02355455248432006    4    4    4    2
 0.003643696630941891    4    4    4    3
 0.5381726082291671    4    4    4    4
 0.003414800680768878    4    4    5    1
 0.05050819942075311    4    4    5    2
 -0.01634273885358698    4    4    5    3
 0.008360422802399667    4    4    5    4
 0.4540852276760829    4    4    5    5
 0.0004163107297605236    4    4    6    1
 -0.0017970121879251    4    4    6    2
 0.002429432579552478    4    4    6    3
 0.03413706643393617    4    4    6    4
 -0.0247561752270235    4    4    6    5
 0.5217049584442239    4    4    6    6
 0.003074482131127593    4    4    7    1
 -0.01327105324517811    4    4    7    2
 0.05586757617217924    4    4    7    3
 -0.001206629415627485    4    4    7    4
 0.06053461106311235    4    4    7    5
 0.01900715858231394    4    4    7    6
 0.453997328176033    4    4    7    7
 0.003701128250322018    4    4    8    1
 -0.01597598163930403    4    4    8    2
 -0.07102452339127861    4    4    8    3
 0.0076918096238296    4    4    8    4
 0.01373156568451843    4    4    8    5
 0.01315533173119977    4    4    8    6
 0.02154374839963856    4    4    8    7
 0.4629160619130015    4    4    8    8
 -0.003742104442384943    4    4    9    1
 0.06893027045753908    4    4    9    2
 0.01060514311559907    4    4    9    3
 -0.01244057963770755    4    4    9    4
 -0.02667642603991084    4    4    9    5
 0.004890784138312385    4    4    9    6
 0.03611876265858912    4    4    9    7
 0.04348054961482009    4    4    9    8
 0.4598429759862297    4    4    9    9
 -0.001620648946327663    5    1    3    3
 0.0005741754054929234    5    1    4    3
 0.00341480068076888    5    1    4    4
 0.008793530356108047    5    1    5    1
 0.01380775877242542    5    1    5    2
 -0.002537364396624631    5    1    5    3
 -0.0005327761554665702    5    1    5    4
 -0.00179415173444121    5    1    5    5
 -0.003986343734532513    5    1    6    1
 -0.0029060760469388    5    1    6    2
 -0.001010485557184393    5    1    6    3
 -0.003144578245495786    5    1    6    4
 0.0002375643947037571    5    1    6    5
 -0.0003465237312050349    5    1    6    6
 0.01139118451193712    5    1    7    1
 0.008304263420545896    5    1    7    2
 0.002567226483247573    5    1    7    3
 -0.0004843377650426508    5    1    7    4
 0.002611925063046385    5    1    7    5
 -0.0001030561019938992    5    1    7    6
 0.0003690213673544489    5    1    7    7
 0.005962540497043607    5    1    8    1
 0.004346739085056107    5    1    8    2
 -0.0003761319302649423    5    1    8    3
 -8.434647187825816e-05    5    1    8    4
 -0.001151420865188898    5    1    8    5
 2.389115552508397e-05    5    1    8    6
 -0.0001287333446566868    5    1    8    7
 -2.249763614901488e-05    5    1    8    8
 0.00678848018829856    5    1    9    5
 -0.004174564040702387    5    1    9    6
 0.01192903382430349    5    1    9    7
 0.006244069455066456    5    1    9    8
 -0.02397096282460623    5    2    3    3
 0.008492608674482994    5    2    4    3
 0.05050819942075309    5    2    4    4
 0.01380775877242542    5    2    5    1
 0.1082126563003132    5    2    5    2
 -0.03753006952047918    5    2    5    3
 -0.007880273791227136    5    2    5    4
 -0.02653723659614677    5    2    5    5
 -0.005654358711358348    5    2    6    1
 -0.005491670541884439    5    2    6    2
 -0.0150051962798601    5    2    6    3
 -0.04669538664413802    5    2    6    4
 0.003527710362897922    5    2    6    5
 0.0294658004651989    5    2    6    6
 0.01615762404526198    5    2    7    1
 0.01569273414117931    5    2    7    2
 0.03812200679376505    5    2    7    3
 -0.007192169327450953    5    2    7    4
 0.03878575795630398    5    2    7    5
 0.008763124324855109    5    2    7    6
 -0.03137883209334155    5    2    7    7
 0.008457460030159512    5    2    8    1
 0.008214120553316355    5    2    8    2
 -0.005585367747832488    5    2    8    3
 -0.001252502182785816    5    2    8    4
 -0.0170980138805993    5    2    8    5
 -0.002031526150137146    5    2    8    6
 0.0109465260392884    5    2    8    7
 0.001913031628145495    5    2    8    8
 -0.0104345397198917    5    2    9    5
 -0.0285821132273998    5    2    9    6
 0.08167487482174707    5    2    9    7
 0.04275145821800155    5    2    9    8
 -0.001620648946327664    5    3    3    1
 -0.02397096282460626    5    3    3    2
 -0.008270042456525649    5    3    3    3
 0.0005741754054929248    5    3    4    1
 0.008492608674483005    5    3    4    2
 -0.001528020958900639    5    3    4    3
 -0.01634273885358695    5    3    4    4
 -0.002537364396624631    5    3    5    1
 -0.03753006952047918    5    3    5    2
 0.04089299961638569    5    3    5    3
 0.007013992915453305    5    3    5    4
 0.02461278131011221    5    3    5    5
 0.001341301532189426    5    3    6    1
 -0.005789750368462117    5    3    6    2
 0.006428679397942992    5    3    6    3
 0.01639704819818738    5    3    6    4
 -0.001028248713933947    5    3    6    5
 -0.01628658976833476    5    3    6    6
 -0.003407693252986179    5    3    7    1
 0.01470936459371495    5    3    7    2
 -0.008025089251275448    5    3    7    3
 -0.0016867538525245    5    3    7    4
 -0.02758461676104093    5    3    7    5
 -0.006072571838308633    5    3    7    6
 0.04096988619374123    5    3    7    7
 0.0004992711976759944    5    3    8    1
 -0.002155112427247213    5    3    8    2
 -0.01257379718310842    5    3    8    3
 -0.0004432087761251954    5    3    8    4
 0.0006801465639454554    5    3    8    5
 0.007725315173529003    5    3    8    6
 -0.004698246184245232    5    3    8    7
 -0.02468329642540899    5    3    8    8
 0.01266051105027686    5    3    9    3
 -0.004485458792610132    5    3    9    4
 0.0198218929860403    5    3    9    5
 0.01575749984176402    5    3    9    6
 -0.04003329945285448    5    3    9    7
 0.005865396877266521    5    3    9    8
 0.0005741754054929232    5    4    3    1
 0.008492608674483005    5    4    3    2
 -0.001528020958900761    5    4    3    3
 0.003414800680768896    5    4    4    1
 0.05050819942075311    5    4    4    2
 -0.01634273885358688    5    4    4    3
 0.008360422802399681    5    4    4    4
 -0.000532776155466571    5    4    5    1
 -0.007880273791227138    5    4    5    2
 0.007013992915453312    5    4    5    3
 0.04937335558622756    5    4    5    4
 -0.00683240184349943    5    4    5    5
 0.004174060271109236    5    4    6    1
 -0.01801740057151055    5    4    6    2
 0.0163970481981874    5    4    6    3
 0.0009302205965534618    5    4    6    4
 -0.02356151989798946    5    4    6    5
 -0.01957585257560262    5    4    6    6
 0.0006429018027324137    5    4    7    1
 -0.002775096322434741    5    4    7    2
 -0.001686753852524499    5    4    7    3
 -0.01286560069944158    5    4    7    4
 -0.002385277756207811    5    4    7    5
 0.02481302002335278    5    4    7    6
 0.01164554702602595    5    4    7    7
 0.0001119600880593664    5    4    8    1
 -0.0004832775819145537    5    4    8    2
 -0.0004432087761251618    5    4    8    3
 -0.02468864730274184    5    4    8    4
 0.003054021843923949    5    4    8    5
 0.02873272221941723    5    4    8    6
 0.008120438760268228    5    4    8    7
 0.007930305549574759    5    4    8    8
 -0.004485458792610131    5    4    9    3
 -0.02667642603990963    5    4    9    4
 0.004162047813557856    5    4    9    5
 0.04903651601303645    5    4    9    6
 0.007552757386543898    5    4    9    7
 0.001315297886076615    5    4    9    8
 0.6338195113901034    5    5    1    1
 -0.003928190335977076    5    5    2    1
 0.4854769549322931    5    5    2    2
 -0.002537364396624641    5    5    3    1
 -0.03753006952047915    5    5    3    2
 0.4456048717062412    5    5    3    3
 -0.0005327761554665658    5    5    4    1
 -0.007880273791227035    5    5    4    2
 0.007013992915453415    5    5    4    3
 0.4540852276760828    5    5    4    4
 -0.001794151734441213    5    5    5    1
 -0.02653723659614673    5    5    5    2
 0.02461278131011219    5    5    5    3
 -0.006832401843499446    5    5    5    4
 0.5202142727927092    5    5    5    5
 -0.0003153389816849831    5    5    6    1
 0.001361165958276058    5    5    6    2
 0.008800874333131183    5    5    6    3
 0.05870081773533965    5    5    6    4
 -0.01156761095079418    5    5    6    5
 0.4723365688971169    5    5    6    6
 -0.003467025395978685    5    5    7    1
 0.01496547277558897    5    5    7    2
 0.01505571000893031    5    5    7    3
 0.01543903792047353    5    5    7    4
 0.03291730036197928    5    5    7    5
 -0.01559454526488349    5    5    7    6
 0.5160662146644247    5    5    7    7
 0.001528376689495664    5    5    8    1
 -0.006597263395884895    5    5    8    2
 -0.07421101216827997    5    5    8    3
 0.02399910147943309    5    5    8    4
 0.04355758890600858    5    5    8    5
 -0.006351537576919156    5    5    8    6
 0.009595731746274632    5    5    8    7
 0.4502155649717145    5    5    8    8
 -0.003742104442385017    5    5    9    1
 0.06893027045753866    5    5    9    2
 0.01982189298603843    5    5    9    3
 0.004162047813559409    5    5    9    4
 0.0140159149896326    5    5    9    5
 -0.003704576364639653    5    5    9    6
 -0.04073032857820648    5    5    9    7
 0.01795524336990098    5    5    9    8
 0.4598429759862317    5    5    9    9
 0.001525409144347646    6    1    3    1
 0.002163689600826481    6    1    3    2
 -0.0001009717480753513    6    1    3    3
 0.01276652265521907    6    1    4    1
 0.01810844809090633    6    1    4    2
 -0.001902409572249922    6    1    4    3
 0.0004163107297605207    6    1    4    4
 -0.003986343734532513    6    1    5    1
 -0.005654358711358347    6    1    5    2
 0.001341301532189425    6    1    5    3
 0.004174060271109238    6    1    5    4
 -0.000315338981684977    6    1    5    5
 0.0207365555462881    6    1    6    1
 0.01425054830861776    6    1    6    2
 0.002499128000347889    6    1    6    3
 0.001193547521174316    6    1    6    4
 -0.004747839042067548    6    1    6    5
 0.0006506338169713854    6    1    6    6
 -0.0007843005559033504    6    1    7    3
 -0.003029514706928535    6    1    7    4
 -0.001412006568400849    6    1    7    5
 -0.0005866918985050933    6    1    7    6
 -0.0005080660529056342    6    1    7    7
 -0.0002506240850366655    6    1    8    3
 -0.004056595277635289    6    1    8    4
 0.0003273408160757807    6    1    8    5
 -0.0009161845173798011    6    1    8    6
 -0.0001567825181479831    6    1    8    7
 -0.0001425677640660703    6    1    8    8
 0.001121042716367613    6    1    9    3
 0.009382281002448903    6    1    9    4
 -0.002929615064321874    6    1    9    5
 0.02021310611453483    6    1    9    6
 0.001112035306380817    6    2    3    1
 0.002101435556037816    6    2    3    2
 0.000435846229645383    6    2    3    3
 0.009306895782629859    6    2    4    1
 0.01758742874595287    6    2    4    2
 0.008211782554159048    6    2    4    3
 -0.001797012187925095    6    2    4    4
 -0.0029060760469388    6    2    5    1
 -0.005491670541884441    6    2    5    2
 -0.005789750368462117    6    2    5    3
 -0.01801740057151055    6    2    5    4
 0.001361165958276067    6    2    5    5
 0.01425054830861776    6    2    6    1
 0.04764710441814472    6    2    6    2
 -0.002898344936282365    6    2    6    3
 -0.00138420777716514    6    2    6    4
 0.005506270684793004    6    2    6    5
 0.01650531609261225    6    2    6    6
 0.0009095866815978056    6    2    7    3
 0.003513456937379087    6    2    7    4
 0.001637564017108719    6    2    7    5
 -0.01488323382709426    6    2    7    6
 -0.01288864885345874    6    2    7    7
 0.0002906594010701077    6    2    8    3
 0.004704605918480694    6    2    8    4
 -0.0003796310539437016    6    2    8    5
 -0.02324182153470515    6    2    8    6
 -0.003977267938318495    6    2    8    7
 -0.003616667239158239    6    2    8    8
 0.004689537557643869    6    2    9    3
 0.03924788814463664    6    2    9    4
 -0.01225514395927096    6    2    9    5
 0.00887034334934033    6    2    9    6
 0.02838738498449634    6    3    1    1
 -0.0006185183430369779    6    3    2    1
 0.009159382971786721    6    3    2    2
 7.606827448199939e-05    6    3    3    1
 0.001129575164295436    6    3    3    2
 0.01003843907964606    6    3    3    3
 0.001433203012502351    6    3    4    1
 0.02128233536697661    6    3    4    2
 0.002903121474388485    6    3    4    3
 0.002429432579552459    6    3    4    4
 -0.001010485557184393    6    3    5    1
 -0.0150051962798601    6    3    5    2
 0.006428679397943018    6    3    5    3
 0.01639704819818739    6    3    5    4
 0.008800874333131228    6    3    5    5
 0.002499128000347886    6    3    6    1
 -0.002898344936282376    6    3    6    2
 0.02163333508890693    6    3    6    3
 0.01546565053946883    6    3    6    4
 -0.01531705547857727    6    3    6    5
 -0.002037659825269542    6    3    6    6
 -0.0007843005559035224    6    3    7    1
 0.0009095866815981527    6    3    7    2
 -0.001780145884757108    6    3    7    3
 -0.001675317502604685    6    3    7    4
 -0.003530762759749039    6    3    7    5
 0.01032277348577153    6    3    7    6
 0.01921952599172691    6    3    7    7
 -0.0002506240850364017    6    3    8    1
 0.0002906594010695543    6    3    8    2
 -0.008308406057410732    6    3    8    3
 -0.01637252746667672    6    3    8    4
 0.008292579883336303    6    3    8    5
 0.002242835616707825    6    3    8    6
 0.0004344533688853333    6    3    8    7
 0.008042404370770027    6    3    8    8
 -0.0005961953806013126    6    3    9    1
 0.008118199178404594    6    3    9    2
 -0.0005432859276678741    6    3    9    3
 -0.01023605482684988    6    3    9    4
 0.007216971688483979    6    3    9    5
 0.02691037043239072    6    3    9    6
 -0.008445273105960556    6    3    9    7
 -0.002698696091866789    6    3    9    8
 0.006444421719792428    6    3    9    9
 0.2375809761400017    6    4    1    1
 -0.005176531469153604    6    4    2    1
 0.07665711894440622    6    4    2    2
 0.001433203012502344    6    4    3    1
 0.0212823353669766    6    4    3    2
 0.08516545910771769    6    4    3    3
 -0.0003136326691861174    6    4    4    1
 -0.004657285527192652    6    4    4    2
 -0.00739969046751269    6    4    4    3
 0.0341370664339361    6    4    4    4
 -0.003144578245495787    6    4    5    1
 -0.04669538664413799    6    4    5    2
 0.01639704819818737    6    4    5    3
 0.0009302205965534827    6    4    5    4
 0.05870081773533964    6    4    5    5
 0.001193547521174314    6    4    6    1
 -0.001384207777165145    6    4    6    2
 0.01546565053946884    6    4    6    3
 0.1107483590906238    6    4    6    4
 -0.02389000987090941    6    4    6    5
 0.05078717370145623    6    4    6    6
 -0.003029514706928881    6    4    7    1
 0.003513456937379756    6    4    7    2
 0.007354107415978989    6    4    7    3
 0.02142344037273716    6    4    7    4
 0.03942023441039939    6    4    7    5
 -0.005541496494055284    6    4    7    6
 0.08373641100556926    6    4    7    7
 -0.004056595277635109    6    4    8    1
 0.004704605918480315    6    4    8    2
 -0.0336228665352781    6    4    8    3
 0.01697203819372581    6    4    8    4
 0.03465476228732448    6    4    8    5
 0.002664561187979066    6    4    8    6
 -0.0163970539623152    6    4    8    7
 0.0765845120735421    6    4    8    8
 -0.00498970513031735    6    4    9    1
 0.06794319682343804    6    4    9    2
 -0.01023605482685035    6    4    9    3
 0.00223999054514645    6    4    9    4
 0.02245883873214448    6    4    9    5
 0.01285200514699319    6    4    9    6
 -0.03262152358041797    6    4    9    7
 -0.04368102858287037    6    4    9    8
 0.05393494341525366    6    4    9    9
 -0.07418460463019189    6    5    1    1
 0.001616370749182421    6    5    2    1
 -0.02393616758956864    6    5    2    2
 -0.00101048555718439    6    5    3    1
 -0.01500519627986009    6    5    3    2
 -0.01925771642563403    6    5    3    3
 -0.003144578245495781    6    5    4    1
 -0.04669538664413801    6    5    4    2
 0.01639704819818736    6    5    4    3
 -0.0247561752270235    6    5    4    4
 0.0002375643947037573    6    5    5    1
 0.003527710362897918    6    5    5    2
 -0.001028248713933949    6    5    5    3
 -0.02356151989798948    6    5    5    4
 -0.0115676109507942    6    5    5    5
 -0.00474783904206755    6    5    6    1
 0.005506270684793009    6    5    6    2
 -0.01531705547857728    6    5    6    3
 -0.02389000987090944    6    5    6    4
 0.04814283010280668    6    5    6    5
 -0.01274006104163462    6    5    6    6
 -0.00141200656840099    6    5    7    1
 0.001637564017108994    6    5    7    2
 -0.008453224382887287    6    5    7    3
 0.02181949661483878    6    5    7    4
 -0.01964329448798013    6    5    7    5
 -0.00925118509047447    6    5    7    6
 -0.02274858735289579    6    5    7    7
 0.0003273408160755863    6    5    8    1
 -0.0003796310539433117    6    5    8    2
 0.01248160715866912    6    5    8    3
 0.02463353650179867    6    5    8    4
 -0.008663632136315179    6    5    8    5
 -0.01890612090383883    6    5    8    6
 -0.003893330917175354    6    5    8    7
 -0.03042980580303883    6    5    8    8
 0.001558034268264358    6    5    9    1
 -0.02121524743078701    6    5    9    2
 0.007216971688484121    6    5    9    3
 0.02245883873214465    6    5    9    4
 -0.001696704617477892    6    5    9    5
 -0.05112427509020027    6    5    9    6
 -0.01520435119903697    6    5    9    7
 0.003524774488145801    6    5    9    8