 &FCI NORB=   4,NELEC= 2,MS2=0,
  ORBSYM=1,1,1,1,
  ISYM=1,
 &END
 0.4228062689715817    1    1    1    1
 0.410534684645683    1    1    2    2
 0.07439136515903054    1    1    3    1
 0.4373591807749265    1    1    3    3
 -0.09313324215334635    1    1    4    2
 0.4152149375540524    1    1    4    4
 0.1637626567476859    2    1    2    1
 0.08569006029578836    2    1    3    2
 -0.06603736904134501    2    1    4    1
 -0.1803152060104437    2    1    4    3
 0.4105346846456829    2    2    1    1
 0.4112934780189167    2    2    2    2
 0.08342294839734804    2    2    3    1
 0.4327659847388791    2    2    3    3
 -0.09150097417212523    2    2    4    2
 0.4174019956249648    2    2    4    4
 0.07439136515903053    3    1    1    1
 0.08342294839734804    3    1    2    2
 0.07249511486987575    3    1    3    1
 0.1174300309172477    3    1    3    3
 -0.07166348567475178    3    1    4    2
 0.1129869361310386    3    1    4    4
 0.08569006029578838    3    2    2    1
 0.08349524617118789    3    2    3    2
 -0.0729648614884955    3    2    4    1
 -0.1239220063581414    3    2    4    3
 0.4373591807749267    3    3    1    1
 0.4327659847388791    3    3    2    2
 0.1174300309172478    3    3    3    1
 0.5012410647597879    3    3    3    3
 -0.1349748863377037    3    3    4    2
 0.476883292957418    3    3    4    4
 -0.06603736904134504    4    1    2    1
 -0.07296486148849549    4    1    3    2
 0.06642118772139653    4    1    4    1
 0.1016918920197905    4    1    4    3
 -0.09313324215334631    4    2    1    1
 -0.09150097417212522    4    2    2    2
 -0.0716634856747518    4    2    3    1
 -0.1349748863377035    4    2    3    3
 0.08076088270564244    4    2    4    2
 -0.1227753405747664    4    2    4    4
 -0.1803152060104438    4    3    2    1
 -0.1239220063581414    4    3    3    2
 0.1016918920197905    4    3    4    1
 0.2379037657481271    4    3    4    3
 0.4152149375540527    4    4    1    1
 0.4174019956249647    4    4    2    2
 0.1129869361310386    4    4    3    1
 0.4768832929574179    4    4    3    3
 -0.1227753405747664    4    4    4    2
 0.4607393819777328    4    4    4    4
 -0.8018330610634136    1    1  0  0
 -0.6808848203945569    2    2  0  0
 -0.0743913651575088    3    1  0  0
 0.2029981611324557    3    3  0  0
 0.1202291152655788    4    2  0  0
 0.2650102500625053    4    4  0  0
 0.26458860546  0  0  0  0
