 &FCI NORB=  13,NELEC=10,MS2=0,
  ORBSYM=1,1,1,1,1,1,1,1,1,1,1,1,1,
  ISYM=1,
 &END
 4.739752389908786    1    1    1    1
 -0.429916721862162    1    1    2    1
 1.043111868710803    1    1    2    2
 0.8603209574282609    1    1    3    3
 -0.1412105953236474    1    1    4    1
 0.08650565331923095    1    1    4    2
 0.980547800091421    1    1    4    4
 1.04059134118802    1    1    5    5
 -0.153690196941748    1    1    6    1
 0.2250237356457301    1    1    6    2
 -0.1364372246549638    1    1    6    4
 0.4556957656528804    1    1    6    6
 0.2800235361909624    1    1    7    3
 0.4781790327862172    1    1    7    7
 0.08785437038896055    1    1    8    3
 0.1381830031069181    1    1    8    7
 0.5124417569562152    1    1    8    8
 0.1496124721683615    1    1    9    1
 -0.1770296025364574    1    1    9    2
 0.1329189543704991    1    1    9    4
 -0.1937319911627159    1    1    9    6
 0.6207233786527507    1    1    9    9
 -0.5085955206618226    1    1   10    5
 0.9803375692085209    1    1   10   10
 0.1150700198075931    1    1   11    1
 -0.0419367017786389    1    1   11    2
 -0.4587200069137771    1    1   11    4
 0.1192172608723276    1    1   11    6
 -0.1685033921590533    1    1   11    9
 0.9440752640933434    1    1   11   11
 -0.3966292206664327    1    1   12    3
 -0.3141760578406462    1    1   12    7
 -0.1269893769832826    1    1   12    8
 1.011513117044367    1    1   12   12
 0.3691016980081076    1    1   13    1
 -0.3561390019510377    1    1   13    2
 -0.05799247715469594    1    1   13    4
 -0.1997677989734102    1    1   13    6
 0.1427312511503861    1    1   13    9
 0.02126574984795688    1    1   13   11
 0.8198021287113586    1    1   13   13
 -0.4299167218621619    2    1    1    1
 0.06363069993277341    2    1    2    1
 -0.0137775630589016    2    1    2    2
 -0.006452322086239153    2    1    3    3
 0.01643051520255432    2    1    4    1
 -0.008140890086452079    2    1    4    2
 -0.01332173554307533    2    1    4    4
 -0.01143821022436316    2    1    5    5
 0.02455289502771416    2    1    6    1
 -0.004512799860346791    2    1    6    2
 0.00105829344099224    2    1    6    4
 -0.002126713474270025    2    1    6    6
 -0.005124154364948529    2    1    7    3
 -0.00306047234299321    2    1    7    7
 -0.003610682256425512    2    1    8    3
 -0.00192231929995273    2    1    8    7
 -0.0004220926206588341    2    1    8    8
 -0.02468689527924093    2    1    9    1
 0.004796974245609415    2    1    9    2
 -0.002818958759451745    2    1    9    4
 0.002872319425757719    2    1    9    6
 -0.002632379880828669    2    1    9    9
 0.01397350600045346    2    1   10    5
 -0.01734062087730138    2    1   10   10
 -0.0112710236590985    2    1   11    1
 0.005047903480621669    2    1   11    2
 0.01472510797688061    2    1   11    4
 -0.001900402840152929    2    1   11    6
 0.0045585317110924    2    1   11    9
 -0.01857930829821015    2    1   11   11
 0.01146223425975516    2    1   12    3
 0.007706672728188787    2    1   12    7
 0.00370156951942671    2    1   12    8
 -0.01907241430659613    2    1   12   12
 -0.05529540600872312    2    1   13    1
 0.01312186811187928    2    1   13    2
 0.004354827720298856    2    1   13    4
 0.004719149295878579    2    1   13    6
 -0.004840445397121929    2    1   13    9
 -0.004211556109039711    2    1   13   11
 -0.01134254819968427    2    1   13   13
 1.043111868710803    2    2    1    1
 -0.0137775630589016    2    2    2    1
 0.7500108871200194    2    2    2    2
 0.6648127732136792    2    2    3    3
 -0.01521201565311488    2    2    4    1
 -0.01656652803338905    2    2    4    2
 0.6689309829565219    2    2    4    4
 0.711526760858442    2    2    5    5
 -0.001216852958016626    2    2    6    1
 0.1157004832775449    2    2    6    2
 -0.07030522529366005    2    2    6    4
 0.4012260165141971    2    2    6    6
 0.1341040406243466    2    2    7    3
 0.3998638856153849    2    2    7    7
 -0.007079773270340029    2    2    8    3
 0.08975624859433264    2    2    8    7
 0.5000239853810214    2    2    8    8
 -0.0002384407642298217    2    2    9    1
 -0.06007745395282264    2    2    9    2
 0.03709322134519255    2    2    9    4
 -0.1214299051646593    2    2    9    6
 0.5585545428673658    2    2    9    9
 -0.188952904900962    2    2   10    5
 0.6107716420519935    2    2   10   10
 0.01602628603221399    2    2   11    1
 -0.002635162803713186    2    2   11    2
 -0.1640658462187433    2    2   11    4
 0.05619358800542484    2    2   11    6
 -0.05336636851662484    2    2   11    9
 0.5827922796854662    2    2   11   11
 -0.1326494179752738    2    2   12    3
 -0.1407236290453405    2    2   12    7
 -0.05298897991978974    2    2   12    8
 0.6163577672052509    2    2   12   12
 0.01026550532181614    2    2   13    1
 -0.117961067838375    2    2   13    2
 -0.02284410114683651    2    2   13    4
 -0.09862505165934823    2    2   13    6
 0.03929532730135574    2    2   13    9
 -0.01965621796476561    2    2   13   11
 0.5974422246099155    2    2   13   13
 0.0190394016826406    3    1    3    1
 0.02250420786340111    3    1    3    2
 0.003748952096192093    3    1    4    3
 0.003646191821615657    3    1    6    3
 0.01275698200195426    3    1    7    1
 0.01123591507279039    3    1    7    2
 0.00540602031733415    3    1    7    4
 0.005534513398614696    3    1    7    6
 0.006479668259410489    3    1    8    1
 0.003947326539117672    3    1    8    2
 0.007091803417466241    3    1    8    4
 0.0007347447958911809    3    1    8    6
 0.0003485016106490828    3    1    9    3
 -0.002889606552081964    3    1    9    7
 -0.006871073265647984    3    1    9    8
 -0.002094681423917312    3    1   11    3
 -0.002171434645341298    3    1   11    7
 -0.001475206541492965    3    1   11    8
 -0.03129116055630136    3    1   12    1
 -0.01522632510727989    3    1   12    2
 -0.004806881914181867    3    1   12    4
 -0.007388694824576181    3    1   12    6
 0.007051629825045723    3    1   12    9
 0.006125947476873951    3    1   12   11
 -0.01150298815757195    3    1   13    3
 -0.007134930511872332    3    1   13    7
 -0.002288695753151698    3    1   13    8
 0.01786711619014584    3    1   13   12
 0.02250420786340111    3    2    3    1
 0.1473884338160477    3    2    3    2
 -0.01364459615515001    3    2    4    3
 -0.01348773645828547    3    2    6    3
 0.0147413166441201    3    2    7    1
 0.0409066187282365    3    2    7    2
 0.03688900543666872    3    2    7    4
 0.05963047859172345    3    2    7    6
 0.007309119592939384    3    2    8    1
 -0.01164491889401769    3    2    8    2
 0.06823815595616016    3    2    8    4
 0.004321519772579343    3    2    8    6
 0.06528408452566152    3    2    9    3
 -0.01991274598673685    3    2    9    7
 -0.1152390549705885    3    2    9    8
 0.007747493946057238    3    2   11    3
 -0.0002716923683654714    3    2   11    7
 0.001154090819197354    3    2   11    8
 -0.03268028806462803    3    2   12    1
 -0.02716222712197006    3    2   12    2
 -0.01187927968499843    3    2   12    4
 -0.03964941569366487    3    2   12    6
 0.05197571808812731    3    2   12    9
 0.03173918707857411    3    2   12   11
 -0.02876474637384092    3    2   13    3
 -0.008926901910373358    3    2   13    7
 0.01007812326422673    3    2   13    8
 0.0781505981482003    3    2   13   12
 0.8603209574282606    3    3    1    1
 -0.00645232208623913    3    3    2    1
 0.6648127732136792    3    3    2    2
 0.6466378036168995    3    3    3    3
 -0.005770964194185014    3    3    4    1
 -0.007936106982886087    3    3    4    2
 0.5954349658420925    3    3    4    4
 0.6107073487849818    3    3    5    5
 -0.0008959777938566005    3    3    6    1
 0.07441760871323475    3    3    6    2
 -0.04237060292747056    3    3    6    4
 0.3883242641399816    3    3    6    6
 0.1091975917153845    3    3    7    3
 0.4002402095547241    3    3    7    7
 -0.02716033887898775    3    3    8    3
 0.0867317049094368    3    3    8    7
 0.5167469733250788    3    3    8    8
 0.000758745588073448    3    3    9    1
 -0.008824957395362832    3    3    9    2
 0.001498401842674472    3    3    9    4
 -0.1070579469952857    3    3    9    6
 0.5584678569291427    3    3    9    9
 -0.1398245033056413    3    3   10    5
 0.5365780636877073    3    3   10   10
 0.005761005571212566    3    3   11    1
 -0.00541148272325687    3    3   11    2
 -0.1294570667383832    3    3   11    4
 0.037513702237644    3    3   11    6
 -0.03113710441522166    3    3   11    9
 0.5209116576655208    3    3   11   11
 -0.09821854981209362    3    3   12    3
 -0.1231418962396891    3    3   12    7
 -0.05182425829015561    3    3   12    8
 0.5845268943615536    3    3   12   12
 0.004693948639608939    3    3   13    1
 -0.09299237040573227    3    3   13    2
 -0.02006476117847844    3    3   13    4
 -0.07282691779578049    3    3   13    6
 0.02092712713869828    3    3   13    9
 -0.006068327771598728    3    3   13   11
 0.533800777565682    3    3   13   13
 -0.1412105953236473    4    1    1    1
 0.01643051520255431    4    1    2    1
 -0.01521201565311487    4    1    2    2
 -0.005770964194185023    4    1    3    3
 0.02999853688444828    4    1    4    1
 0.02223691371369765    4    1    4    2
 0.01124034587174958    4    1    4    4
 -0.003417563202535335    4    1    5    5
 -0.001780551806240669    4    1    6    1
 -0.01131055863665708    4    1    6    2
 0.003405688463696423    4    1    6    4
 -0.008040720970895596    4    1    6    6
 8.953337777162249e-05    4    1    7    3
 -0.001758080742719861    4    1    7    7
 0.005000441166099791    4    1    8    3
 0.0009221472605382669    4    1    8    7
 -0.002216433977714835    4    1    8    8
 0.006091177259685968    4    1    9    1
 0.01079390998098594    4    1    9    2
 -0.002843543590171636    4    1    9    4
 0.007268795546297638    4    1    9    6
 -0.01280711296835832    4    1    9    9
 0.004285860431017648    4    1   10    5
 -0.005339215647693567    4    1   10   10
 -0.03643335014409012    4    1   11    1
 -0.0141233576682358    4    1   11    2
 -0.005529397330471037    4    1   11    4
 -0.006719264763261214    4    1   11    6
 0.004275091782130185    4    1   11    9
 0.006276843117431017    4    1   11   11
 0.004230178073845641    4    1   12    3
 0.002678262962492464    4    1   12    7
 0.002425224870228759    4    1   12    8
 -0.005407039656478747    4    1   12   12
 -0.01176104464368908    4    1   13    1
 0.008875065657157953    4    1   13    2
 -0.009958073065772441    4    1   13    4
 0.00772048213807291    4    1   13    6
 -0.00892927650132606    4    1   13    9
 0.01722756703321486    4    1   13   11
 -0.01155805975979685    4    1   13   13
 0.08650565331923087    4    2    1    1
 -0.00814089008645206    4    2    2    1
 -0.01656652803338911    4    2    2    2
 -0.007936106982886063    4    2    3    3
 0.02223691371369765    4    2    4    1
 0.1177177847944525    4    2    4    2
 0.08106779171785096    4    2    4    4
 0.04306224084051267    4    2    5    5
 -0.01058492192288482    4    2    6    1
 -0.01926681833313084    4    2    6    2
 -0.008598057587106023    4    2    6    4
 -0.03435399593442744    4    2    6    6
 0.03456084525368779    4    2    7    3
 -0.008723193882400414    4    2    7    7
 0.06295420326174235    4    2    8    3
 0.0103835388792804    4    2    8    7
 -0.02890512996412724    4    2    8    8
 0.01384414678278285    4    2    9    1
 0.003490848304508405    4    2    9    2
 0.01276147434020244    4    2    9    4
 0.01742510508357951    4    2    9    6
 -0.07451928521114765    4    2    9    9
 -0.02305046466640408    4    2   10    5
 0.03250692397300529    4    2   10   10
 -0.02713779723957822    4    2   11    1
 -0.03247040177379056    4    2   11    2
 -0.03698566681288437    4    2   11    4
 -0.02633889435571736    4    2   11    6
 -0.007039802813068975    4    2   11    9
 0.0675988321801512    4    2   11   11
 -0.01782463537762449    4    2   12    3
 -0.009726807568594585    4    2   12    7
 0.02026736534991299    4    2   12    8
 0.03758369425876153    4    2   12   12
 0.008268776543150662    4    2   13    1
 -0.01017170750232431    4    2   13    2
 -0.01074913402384264    4    2   13    4
 0.0007687879099497856    4    2   13    6
 -0.003042175407338095    4    2   13    9
 0.07481075538638667    4    2   13   11
 -0.01521681192436477    4    2   13   13
 0.003748952096192094    4    3    3    1
 -0.01364459615515001    4    3    3    2
 0.04067846769349515    4    3    4    3
 0.009388542112559331    4    3    6    3
 0.002698415617121864    4    3    7    1
 0.01402529626942109    4    3    7    2
 0.007026172672311102    4    3    7    4
 -0.02306268700486792    4    3    7    6
 0.001758653338362633    4    3    8    1
 0.0320854431871598    4    3    8    2
 -0.005786694305917215    4    3    8    4
 -0.009929456763981409    4    3    8    6
 -0.03155213446500273    4    3    9    3
 0.009978479900065514    4    3    9    7
 0.05300711506015268    4    3    9    8
 -0.01100258906953571    4    3   11    3
 -0.008998378095668469    4    3   11    7
 0.002672552444844748    4    3   11    8
 -0.005842219218157139    4    3   12    1
 -0.009696745618844314    4    3   12    2
 -0.005879761603797755    4    3   12    4
 0.001191633159684509    4    3   12    6
 -0.01835451262212987    4    3   12    9
 0.02041868568664392    4    3   12   11
 -0.001013281264160519    4    3   13    3
 -0.006883021060608256    4    3   13    7
 -0.002501733092476225    4    3   13    8
 0.005155661170057737    4    3   13   12
 0.9805478000914211    4    4    1    1
 -0.01332173554307537    4    4    2    1
 0.6689309829565221    4    4    2    2
 0.5954349658420924    4    4    3    3
 0.01124034587174956    4    4    4    1
 0.08106779171785104    4    4    4    2
 0.7314116941094413    4    4    4    4
 0.6641795933856427    4    4    5    5
 -0.009098112243992786    4    4    6    1
 0.0761387590183108    4    4    6    2
 -0.07388396930307282    4    4    6    4
 0.3633278239263393    4    4    6    6
 0.129894274052591    4    4    7    3
 0.3759491313437219    4    4    7    7
 0.02876371493885962    4    4    8    3
 0.09030654842259772    4    4    8    7
 0.461453251962537    4    4    8    8
 0.01123631420441356    4    4    9    1
 -0.03893946518972983    4    4    9    2
 0.04852492356970062    4    4    9    4
 -0.09527923978272772    4    4    9    6
 0.4783223641542947    4    4    9    9
 -0.1702475167255138    4    4   10    5
 0.5789763619792985    4    4   10   10
 -0.01512809041979247    4    4   11    1
 -0.03430199670085333    4    4   11    2
 -0.1795845395097015    4    4   11    4
 0.03331512005449752    4    4   11    6
 -0.0555134365686307    4    4   11    9
 0.6358148514288868    4    4   11   11
 -0.1179512304701234    4    4   12    3
 -0.1229314229781316    4    4   12    7
 -0.03022823507547166    4    4   12    8
 0.5883968892494527    4    4   12   12
 0.0115877044137882    4    4   13    1
 -0.1013988114821857    4    4   13    2
 -0.0350937246633504    4    4   13    4
 -0.08229600896152983    4    4   13    6
 0.02550367832771278    4    4   13    9
 0.04293100913664909    4    4   13   11
 0.5445176046210596    4    4   13   13
 0.03011250416441645    5    1    5    1
 0.03028931806410919    5    1    5    2
 0.00992636377944328    5    1    5    4
 0.008835689539689617    5    1    6    5
 -0.01112834228837567    5    1    9    5
 -0.03753657544577473    5    1   10    1
 -0.01910824858844371    5    1   10    2
 -0.006949107053374919    5    1   10    4
 -0.009308112235348623    5    1   10    6
 0.007164511847266596    5    1   10    9
 -0.006327813677932161    5    1   11    5
 0.006895545840116257    5    1   11   10
 -0.01263967786492528    5    1   13    5
 0.02257050718660084    5    1   13   10
 0.03028931806410918    5    2    5    1
 0.1309533614094691    5    2    5    2
 0.03388037774480931    5    2    5    4
 0.02788438528400473    5    2    6    5
 -0.04739001334890589    5    2    9    5
 -0.03436455475309072    5    2   10    1
 -0.03983517089123385    5    2   10    2
 -0.01561724557426353    5    2   10    4
 -0.03955519394777602    5    2   10    6
 0.01209347850823081    5    2   10    9
 -0.01500882913278062    5    2   11    5
 0.01984419391786681    5    2   11   10
 0.001306298594506955    5    2   13    5
 0.09334372908921759    5    2   13   10
 0.02797023880868398    5    3    5    3
 0.01279779862871959    5    3    7    5
 0.01155147139800737    5    3    8    5
 -0.005720047744516667    5    3   10    3
 -0.00999140523585006    5    3   10    7
 0.0006342457364983585    5    3   10    8
 -0.008196647462453948    5    3   12    5
 0.02273623069624612    5    3   12   10
 0.00992636377944328    5    4    5    1
 0.03388037774480931    5    4    5    2
 0.04427533766935399    5    4    5    4
 -0.0005845585493235834    5    4    6    5
 -0.003451076882544854    5    4    9    5
 -0.01130653834788828    5    4   10    1
 -0.01250563837984319    5    4   10    2
 -0.01348979754953423    5    4   10    4
 -0.005040957557106572    5    4   10    6
 -0.002039779714187533    5    4   10    9
 -0.0134274079632334    5    4   11    5
 0.03141851888359604    5    4   11   10
 -0.002505916338808263    5    4   13    5
 0.02318149139951194    5    4   13   10
 1.04059134118802    5    5    1    1
 -0.01143821022436314    5    5    2    1
 0.711526760858442    5    5    2    2
 0.6107073487849819    5    5    3    3
 -0.003417563202535336    5    5    4    1
 0.04306224084051265    5    5    4    2
 0.6641795933856427    5    5    4    4
 0.7632307194236976    5    5    5    5
 -0.00347693147530876    5    5    6    1
 0.1055585627177626    5    5    6    2
 -0.06784327123875837    5    5    6    4
 0.3719972105631982    5    5    6    6
 0.1377650241178967    5    5    7    3
 0.376779538100333    5    5    7    7
 0.03377277631842519    5    5    8    3
 0.08374141641016533    5    5    8    7
 0.4483268661944347    5    5    8    8
 0.003215361727972393    5    5    9    1
 -0.07575273247860503    5    5    9    2
 0.0452493584653544    5    5    9    4
 -0.1027150481471981    5    5    9    6
 0.4858533737800252    5    5    9    9
 -0.2067479102484958    5    5   10    5
 0.6532852126146871    5    5   10   10
 0.002451305966557179    5    5   11    1
 -0.02056678845663763    5    5   11    2
 -0.1670505888821225    5    5   11    4
 0.04057646213496335    5    5   11    6
 -0.05389178686541265    5    5   11    9
 0.5886895257492881    5    5   11   11
 -0.1324916799727971    5    5   12    3
 -0.1344477811444363    5    5   12    7
 -0.03485928545761505    5    5   12    8
 0.6022976882115566    5    5   12   12
 0.009043923538592687    5    5   13    1
 -0.1087395045156418    5    5   13    2
 -0.0260944456741655    5    5   13    4
 -0.09592905379549183    5    5   13    6
 0.03375638249180046    5    5   13    9
 0.01430578517443384    5    5   13   11
 0.5857089309722158    5    5   13   13
 -0.1536901969417477    6    1    1    1
 0.02455289502771416    6    1    2    1
 -0.001216852958016703    6    1    2    2
 -0.0008959777938566748    6    1    3    3
 -0.001780551806240657    6    1    4    1
 -0.01058492192288484    6    1    4    2
 -0.009098112243992771    6    1    4    4
 -0.003476931475308797    6    1    5    5
 0.01204517993359688    6    1    6    1
 0.001581661464529376    6    1    6    2
 -0.0007094875962545577    6    1    6    4
 0.001625509515647378    6    1    6    6
 -0.002196208357183118    6    1    7    3
 -0.0007583592017677562    6    1    7    7
 -0.003083585162158949    6    1    8    3
 -0.001086282280118281    6    1    8    7
 0.000551574568658206    6    1    8    8
 -0.01346696242629761    6    1    9    1
 -0.001336198425667549    6    1    9    2
 -0.000230288209211752    6    1    9    4
 -0.001069361690991293    6    1    9    6
 0.002922005325616634    6    1    9    9
 0.00453286954870377    6    1   10    5
 -0.005578324429481221    6    1   10   10
 0.006231664137264039    6    1   11    1
 0.006718618571998707    6    1   11    2
 0.008088406892070098    6    1   11    4
 0.001343849798395809    6    1   11    6
 0.000570606712049587    6    1   11    9
 -0.009909610845865877    6    1   11   11
 0.003626631882973825    6    1   12    3
 0.002470994637841775    6    1   12    7
 0.0008683113415437055    6    1   12    8
 -0.006544773711040104    6    1   12   12
 -0.02211011495567488    6    1   13    1
 0.003040236935731628    6    1   13    2
 0.005104647031176955    6    1   13    4
 -0.000384989070943721    6    1   13    6
 0.0006737075175084265    6    1   13    9
 -0.007310414267923517    6    1   13   11
 -0.001268644512089069    6    1   13   13
 0.2250237356457298    6    2    1    1
 -0.004512799860346787    6    2    2    1
 0.1157004832775449    6    2    2    2
 0.07441760871323476    6    2    3    3
 -0.01131055863665708    6    2    4    1
 -0.01926681833313077    6    2    4    2
 0.0761387590183106    6    2    4    4
 0.1055585627177626    6    2    5    5
 0.001581661464529382    6    2    6    1
 0.0457167640715479    6    2    6    2
 -0.02656643839872905    6    2    6    4
 0.02415384866195351    6    2    6    6
 0.03950806436572864    6    2    7    3
 0.01888724726865872    6    2    7    7
 0.009137231720147208    6    2    8    3
 0.01237771012979217    6    2    8    7
 0.02097936206159785    6    2    8    8
 -0.003039900814632149    6    2    9    1
 -0.03849980204334633    6    2    9    2
 0.02400491302646944    6    2    9    4
 -0.02680216103984713    6    2    9    6
 0.04237572568474092    6    2    9    9
 -0.05908243661241084    6    2   10    5
 0.08082363292587492    6    2   10   10
 0.01280046876060107    6    2   11    1
 0.009770422415600628    6    2   11    2
 -0.0448497847158689    6    2   11    4
 0.02007025011123139    6    2   11    6
 -0.02264375309668376    6    2   11    9
 0.06414569370593617    6    2   11   11
 -0.04951116163624562    6    2   12    3
 -0.03562892328440102    6    2   12    7
 -0.01384779698518038    6    2   12    8
 0.07573946161814948    6    2   12   12
 0.002851932073307723    6    2   13    1
 -0.04190716831021807    6    2   13    2
 0.001036135815303133    6    2   13    4
 -0.03002625074666495    6    2   13    6
 0.02303254527750932    6    2   13    9
 -0.01606593870066735    6    2   13   11
 0.0748343200093452    6    2   13   13
 0.003646191821615651    6    3    3    1
 -0.01348773645828549    6    3    3    2
 0.009388542112559338    6    3    4    3
 0.02919486467334571    6    3    6    3
 0.002403050949028489    6    3    7    1
 0.01301669664561347    6    3    7    2
 -0.01561998115116477    6    3    7    4
 -0.03754093581510291    6    3    7    6
 0.001110827429906205    6    3    8    1
 0.01204342503750375    6    3    8    2
 -0.01837095297995986    6    3    8    4
 0.002673162722941682    6    3    8    6
 -0.03319576263688598    6    3    9    3
 0.002430725909253246    6    3    9    7
 0.04805653887588223    6    3    9    8
 -0.003160111288957166    6    3   11    3
 -0.001123852261027907    6    3   11    7
 -0.004581525929843395    6    3   11    8
 -0.005579749531526637    6    3   12    1
 -0.02025863030217688    6    3   12    2
 0.00128833127495393    6    3   12    4
 0.0007255911086199909    6    3   12    6
 -0.01260669320181612    6    3   12    9
 -0.01186417078472942    6    3   12   11
 -0.006542893874428865    6    3   13    3
 -0.01860675055795887    6    3   13    7
 -0.008840245076309539    6    3   13    8
 -0.00509183709241819    6    3   13   12
 -0.1364372246549639    6    4    1    1
 0.001058293440992232    6    4    2    1
 -0.07030522529366003    6    4    2    2
 -0.04237060292747055    6    4    3    3
 0.003405688463696412    6    4    4    1
 -0.008598057587105986    6    4    4    2
 -0.07388396930307291    6    4    4    4
 -0.06784327123875833    6    4    5    5
 -0.0007094875962545651    6    4    6    1
 -0.02656643839872893    6    4    6    2
 0.02723579735638593    6    4    6    4
 -0.004035903052952414    6    4    6    6
 -0.03290881297168102    6    4    7    3
 -0.00124366226045982    6    4    7    7
 -0.01968810663218877    6    4    8    3
 -0.01017418293732504    6    4    8    7
 -0.009740059204774838    6    4    8    8
 0.001174926260044111    6    4    9    1
 0.02467526148196939    6    4    9    2
 -0.02149201907645931    6    4    9    4
 0.01616362926422212    6    4    9    6
 -0.01008594051714001    6    4    9    9
 0.0329726593082954    6    4   10    5
 -0.05414883199066713    6    4   10   10
 -0.003974309168713323    6    4   11    1
 -0.007738236683993096    6    4   11    2
 0.03069999400112995    6    4   11    4
 -0.003916700982772128    6    4   11    6
 0.01935987189766369    6    4   11    9
 -0.06655481205829566    6    4   11   11
 0.02709307431625142    6    4   12    3
 0.02265110561520205    6    4   12    7
 -0.00381926803559937    6    4   12    8
 -0.05553992433588583    6    4   12   12
 -0.0005127387653218864    6    4   13    1
 0.02506742121149988    6    4   13    2
 -0.004598967063551433    6    4   13    4
 0.02264058931728065    6    4   13    6
 -0.01499728798406659    6    4   13    9
 -0.006081729524216009    6    4   13   11
 -0.04381487096407671    6    4   13   13
 0.008835689539689613    6    5    5    1
 0.02788438528400473    6    5    5    2
 -0.000584558549323584    6    5    5    4
 0.01326315550436021    6    5    6    5
 -0.0126270896447032    6    5    9    5
 -0.01013023608505901    6    5   10    1
 -0.01823870675792038    6    5   10    2
 -0.001064846924591763    6    5   10    4
 -0.005378328820831874    6    5   10    6
 0.009717856391337295    6    5   10    9
 -0.001561465013405877    6    5   11    5
 -0.002246740739398208    6    5   11   10
 -0.01106670272629153    6    5   13    5
 0.01381196007730248    6    5   13   10
 0.45569576565288    6    6    1    1
 -0.002126713474270067    6    6    2    1
 0.4012260165141975    6    6    2    2
 0.3883242641399818    6    6    3    3
 -0.008040720970895619    6    6    4    1
 -0.03435399593442731    6    6    4    2
 0.3633278239263391    6    6    4    4
 0.3719972105631983    6    6    5    5
 0.001625509515647328    6    6    6    1
 0.02415384866195345    6    6    6    2
 -0.004035903052952676    6    6    6    4
 0.3365541915739002    6    6    6    6
 0.01117691925944518    6    6    7    3
 0.3325136740283894    6    6    7    7
 -0.02787286210844312    6    6    8    3
 0.02565216261068138    6    6    8    7
 0.3564985767808421    6    6    8    8
 -0.002621066886057456    6    6    9    1
 -0.006133339485670306    6    6    9    2
 0.0003904759291490567    6    6    9    4
 -0.04172740374646949    6    6    9    6
 0.3888819080625886    6    6    9    9
 -0.04488285380884389    6    6   10    5
 0.3485688843542404    6    6   10   10
 0.009177560585888889    6    6   11    1
 0.001603677486981628    6    6   11    2
 -0.03808457779046095    6    6   11    4
 0.02742264780100161    6    6   11    6
 -0.007905720760630851    6    6   11    9
 0.3358246864259254    6    6   11   11
 -0.02432149443738055    6    6   12    3
 -0.03269073854788295    6    6   12    7
 -0.02476754060982448    6    6   12    8
 0.3564943172179725    6    6   12   12
 0.001157807079961851    6    6   13    1
 -0.02809951608283091    6    6   13    2
 -0.005941529385020469    6    6   13    4
 -0.01869980737115435    6    6   13    6
 0.006046123670613267    6    6   13    9
 -0.02600373127116287    6    6   13   11
 0.3649365514931194    6    6   13   13
 0.01275698200195427    7    1    3    1
 0.0147413166441201    7    1    3    2
 0.002698415617121863    7    1    4    3
 0.002403050949028489    7    1    6    3
 0.008550564756951482    7    1    7    1
 0.007436740497499211    7    1    7    2
 0.003648655861270893    7    1    7    4
 0.003530603481116761    7    1    7    6
 0.004347318420936933    7    1    8    1
 0.002712722387479165    7    1    8    2
 0.004680186960426044    7    1    8    4
 0.0004861109413804767    7    1    8    6
 0.0001583869023579633    7    1    9    3
 -0.001883454930992834    7    1    9    7
 -0.004361435952316238    7    1    9    8
 -0.00153160129256068    7    1   11    3
 -0.001526544269793281    7    1   11    7
 -0.001012858517551264    7    1   11    8
 -0.020981762319234    7    1   12    1
 -0.01009441689226686    7    1   12    2
 -0.003326001631159916    7    1   12    4
 -0.004843793239703047    7    1   12    6
 0.004553065041739659    7    1   12    9
 0.004213455149073033    7    1   12   11
 -0.007604750756837629    7    1   13    3
 -0.004759192120546056    7    1   13    7
 -0.001534935326027997    7    1   13    8
 0.01179520354005062    7    1   13   12
 0.01123591507279039    7    2    3    1
 0.04090661872823648    7    2    3    2
 0.01402529626942109    7    2    4    3
 0.0130166966456135    7    2    6    3
 0.007436740497499228    7    2    7    1
 0.02631229043687508    7    2    7    2
 0.00723730234188638    7    2    7    4
 -0.004108117994219528    7    2    7    6
 0.003769519855052853    7    2    8    1
 0.01419528628742272    7    2    8    2
 0.01219089225796214    7    2    8    4
 -0.001772329577530375    7    2    8    6
 -0.005720920679370013    7    2    9    3
 -0.001906816146123366    7    2    9    7
 0.002602296363928181    7    2    9    8
 -0.001074145520094295    7    2   11    3
 -0.003406844467281482    7    2   11    7
 -7.398432125781595e-06    7    2   11    8
 -0.01659193101063662    7    2   12    1
 -0.02348277773534081    7    2   12    2
 -0.00389306591431759    7    2   12    4
 -0.01387973261992289    7    2   12    6
 0.006307571881129515    7    2   12    9