 &FCI NORB=   7,NELEC=10,MS2=0,
  ORBSYM=1,1,1,1,1,1,1,
  ISYM=1,
 &END
 4.744494236421211    1    1    1    1
 -0.4166146712348047    1    1    2    1
 1.004540299894248    1    1    2    2
 0.8001038916804422    1    1    3    3
 0.1836360543021908    1    1    4    1
 -0.1283352069216531    1    1    4    2
 1.00004625066209    1    1    4    4
 1.115336168453031    1    1    5    5
 -0.2381452601046931    1    1    6    1
 0.3084600119938865    1    1    6    2
 0.2191740508373787    1    1    6    4
 0.8027506735142209    1    1    6    6
 0.3623878753868422    1    1    7    3
 0.8690939070868775    1    1    7    7
 -0.416614671234805    2    1    1    1
 0.05816706338250592    2    1    2    1
 -0.01296381531388742    2    1    2    2
 -0.004405433378435832    2    1    3    3
 -0.02249551256598686    2    1    4    1
 0.009216008962738147    2    1    4    2
 -0.01357483576047138    2    1    4    4
 -0.01169282796785235    2    1    5    5
 0.03582068943480926    2    1    6    1
 -0.006649350890657088    2    1    6    2
 -0.002228253507439271    2    1    6    4
 -0.006976664230324501    2    1    6    6
 -0.0075063986685368    2    1    7    3
 -0.009402961593624751    2    1    7    7
 1.004540299894247    2    2    1    1
 -0.01296381531388736    2    2    2    1
 0.7282203163398209    2    2    2    2
 0.6452751392032253    2    2    3    3
 0.01606651015696484    2    2    4    1
 0.004194485848303033    2    2    4    2
 0.6757031441493664    2    2    4    4
 0.747392467343471    2    2    5    5
 -0.0007793628901578365    2    2    6    1
 0.1429386255339696    2    2    6    2
 0.09534576322259136    2    2    6    4
 0.6142363831448212    2    2    6    6
 0.1382131781975238    2    2    7    3
 0.62430686906906    2    2    7    7
 0.0109965328882225    3    1    3    1
 0.01777010274118372    3    1    3    2
 -0.003442855492733792    3    1    4    3
 0.003151123067619993    3    1    6    3
 0.01532011070829592    3    1    7    1
 0.0138744615242418    3    1    7    2
 -0.009639230896530498    3    1    7    4
 0.009216030780023607    3    1    7    6
 0.01777010274118372    3    2    3    1
 0.14447654645873    3    2    3    2
 0.01993953596321306    3    2    4    3
 -0.04012273364310054    3    2    6    3
 0.02311077605933846    3    2    7    1
 0.04028704473975726    3    2    7    2
 -0.07710608715060835    3    2    7    4
 0.09864881561543849    3    2    7    6
 0.8001038916804419    3    3    1    1
 -0.004405433378435807    3    3    2    1
 0.6452751392032252    3    3    2    2
 0.6331606774088439    3    3    3    3
 0.006472202860655567    3    3    4    1
 0.006916169281616716    3    3    4    2
 0.5986365833367282    3    3    4    4
 0.6289974462065755    3    3    5    5
 0.0001972354800460494    3    3    6    1
 0.07590828203525428    3    3    6    2
 0.04322446009511412    3    3    6    4
 0.5715257230918136    3    3    6    6
 0.0904245886125717    3    3    7    3
 0.610867256345908    3    3    7    7
 0.1836360543021911    4    1    1    1
 -0.02249551256598687    4    1    2    1
 0.01606651015696486    4    1    2    2
 0.006472202860655562    4    1    3    3
 0.02778599429462478    4    1    4    1
 0.01892598094866419    4    1    4    2
 -0.01137408472681654    4    1    4    4
 0.005119147330749593    4    1    5    5
 -0.0005762807263751718    4    1    6    1
 0.0186516194324693    4    1    6    2
 0.002347698965680568    4    1    6    4
 0.02120157259372448    4    1    6    6
 -0.0008268644918600323    4    1    7    3
 0.004170078246857037    4    1    7    7
 -0.1283352069216531    4    2    1    1
 0.00921600896273817    4    2    2    1
 0.004194485848302952    4    2    2    2
 0.006916169281616679    4    2    3    3
 0.0189259809486642    4    2    4    1
 0.1240192736864737    4    2    4    2
 -0.1044652759616773    4    2    4    4
 -0.06873837733394594    4    2    5    5
 0.02034043108742949    4    2    6    1
 0.02093486511143414    4    2    6    2
 -0.03132724513902401    4    2    6    4
 0.05862271678856595    4    2    6    6
 -0.07622226177036073    4    2    7    3
 -0.01380822364121177    4    2    7    7
 -0.003442855492733794    4    3    3    1
 0.01993953596321306    4    3    3    2
 0.04722503337522718    4    3    4    3
 -0.02857388150365794    4    3    6    3
 -0.004965085822986956    4    3    7    1
 -0.03408405921082128    4    3    7    2
 0.002340528173091556    4    3    7    4
 0.04759828828037777    4    3    7    6
 1.00004625066209    4    4    1    1
 -0.01357483576047138    4    4    2    1
 0.6757031441493666    4    4    2    2
 0.5986365833367281    4    4    3    3
 -0.01137408472681653    4    4    4    1
 -0.1044652759616773    4    4    4    2
 0.7829905900109224    4    4    4    4
 0.7290330531122484    4    4    5    5
 -0.01924854324822581    4    4    6    1
 0.08830454334232718    4    4    6    2
 0.1213013512709412    4    4    6    4
 0.5490781504550901    4    4    6    6
 0.160100588133394    4    4    7    3
 0.6083424569933771    4    4    7    7
 0.02604493630958469    5    1    5    1
 0.03245943267941899    5    1    5    2
 -0.01345409047499647    5    1    5    4
 0.01575866184895843    5    1    6    5
 0.03245943267941899    5    2    5    1
 0.1444454246935032    5    2    5    2
 -0.04691088177225308    5    2    5    4
 0.05913964820888123    5    2    6    5
 0.02881151672308326    5    3    5    3
 0.02368673085234549    5    3    7    5
 -0.01345409047499647    5    4    5    1
 -0.04691088177225309    5    4    5    2
 0.05593763773945752    5    4    5    4
 -0.001772394145180118    5    4    6    5
 1.115336168453031    5    5    1    1
 -0.01169282796785235    5    5    2    1
 0.747392467343471    5    5    2    2
 0.6289974462065755    5    5    3    3
 0.005119147330749593    5    5    4    1
 -0.06873837733394594    5    5    4    2
 0.7290330531122484    5    5    4    4
 0.8801590933750452    5    5    5    5
 -0.006211836068001653    5    5    6    1
 0.1586400615307249    5    5    6    2
 0.116159017852373    5    5    6    4
 0.5889803613550511    5    5    6    6
 0.1897720111449713    5    5    7    3
 0.6250611755800687    5    5    7    7
 -0.2381452601046934    6    1    1    1
 0.0358206894348093    6    1    2    1
 -0.000779362890157867    6    1    2    2
 0.0001972354800460626    6    1    3    3
 -0.0005762807263751757    6    1    4    1
 0.02034043108742948    6    1    4    2
 -0.0192485432482258    6    1    4    4
 -0.006211836068001653    6    1    5    5
 0.03133308781254766    6    1    6    1
 0.006794642342533581    6    1    6    2
 -0.0002750883106111257    6    1    6    4
 0.008403261358890395    6    1    6    6
 -0.006991955801548399    6    1    7    3
 -0.005133982548394968    6    1    7    7
 0.3084600119938865    6    2    1    1
 -0.006649350890657076    6    2    2    1
 0.1429386255339696    6    2    2    2
 0.07590828203525421    6    2    3    3
 0.01865161943246928    6    2    4    1
 0.02093486511143415    6    2    4    2
 0.08830454334232708    6    2    4    4
 0.1586400615307249    6    2    5    5
 0.006794642342533605    6    2    6    1
 0.1019160848948368    6    2    6    2
 0.06096742863055499    6    2    6    4
 0.09678990027489082    6    2    6    6
 0.07676583182728998    6    2    7    3
 0.06907961562739608    6    2    7    7
 0.003151123067619993    6    3    3    1
 -0.04012273364310055    6    3    3    2
 -0.02857388150365794    6    3    4    3
 0.07091068509188518    6    3    6    3
 0.003866217894682661    6    3    7    1
 0.0353483828994338    6    3    7    2
 0.04441064917906233    6    3    7    4
 -0.06451317756069246    6    3    7    6
 0.2191740508373792    6    4    1    1
 -0.002228253507439261    6    4    2    1
 0.09534576322259126    6    4    2    2
 0.04322446009511415    6    4    3    3
 0.002347698965680582    6    4    4    1
 -0.03132724513902399    6    4    4    2
 0.1213013512709411    6    4    4    4
 0.116159017852373    6    4    5    5
 -0.0002750883106111137    6    4    6    1
 0.06096742863055508    6    4    6    2
 0.06861653283522826    6    4    6    4
 0.04456579138618486    6    4    6    6
 0.07838371897883917    6    4    7    3
 0.04150484478239466    6    4    7    7
 0.01575866184895843    6    5    5    1
 0.05913964820888124    6    5    5    2
 -0.001772394145180128    6    5    5    4
 0.03860925107368957    6    5    6    5
 0.8027506735142208    6    6    1    1
 -0.00697666423032442    6    6    2    1
 0.6142363831448215    6    6    2    2
 0.5715257230918135    6    6    3    3
 0.0212015725937244    6    6    4    1
 0.05862271678856593    6    6    4    2
 0.5490781504550899    6    6    4    4
 0.5889803613550511    6    6    5    5
 0.0084032613588904    6    6    6    1
 0.09678990027489091    6    6    6    2
 0.04456579138618467    6    6    6    4
 0.5971660099852628    6    6    6    6
 0.03792595592471536    6    6    7    3
 0.5663674117872369    6    6    7    7
 0.01532011070829591    7    1    3    1
 0.02311077605933847    7    1    3    2
 -0.004965085822986957    7    1    4    3
 0.003866217894682661    7    1    6    3
 0.02140137759253173    7    1    7    1
 0.01830474203571076    7    1    7    2
 -0.01320680533545929    7    1    7    4
 0.01220231287790166    7    1    7    6
 0.0138744615242418    7    2    3    1
 0.04028704473975726    7    2    3    2
 -0.03408405921082126    7    2    4    3
 0.03534838289943376    7    2    6    3
 0.01830474203571076    7    2    7    1
 0.06188646089470918    7    2    7    2
 -0.01666879888167391    7    2    7    4
 -0.009966319587066215    7    2    7    6
 0.3623878753868423    7    3    1    1
 -0.007506398668536749    7    3    2    1
 0.1382131781975237    7    3    2    2
 0.09042458861257169    7    3    3    3
 -0.0008268644918600432    7    3    4    1
 -0.07622226177036072    7    3    4    2
 0.160100588133394    7    3    4    4
 0.1897720111449713    7    3    5    5
 -0.00699195580154837    7    3    6    1
 0.07676583182728994    7    3    6    2
 0.07838371897883913    7    3    6    4
 0.03792595592471543    7    3    6    6
 0.1524596987534599    7    3    7    3
 0.09320980410675311    7    3    7    7
 -0.0096392308965305    7    4    3    1
 -0.07710608715060834    7    4    3    2
 0.002340528173091549    7    4    4    3
 0.04441064917906234    7    4    6    3
 -0.01320680533545928    7    4    7    1
 -0.01666879888167389    7    4    7    2
 0.06896135365659196    7    4    7    4
 -0.05790340684831193    7    4    7    6
 0.0236867308523455    7    5    5    3
 0.02434800329667354    7    5    7    5
 0.009216030780023605    7    6    3    1
 0.09864881561543845    7    6    3    2
 0.04759828828037777    7    6    4    3
 -0.06451317756069253    7    6    6    3
 0.01220231287790165    7    6    7    1
 -0.009966319587066267    7    6    7    2
 -0.05790340684831187    7    6    7    4
 0.1153223726048266    7    6    7    6
 0.8690939070868773    7    7    1    1
 -0.009402961593624623    7    7    2    1
 0.6243068690690599    7    7    2    2
 0.6108672563459079    7    7    3    3
 0.004170078246856986    7    7    4    1
 -0.01380822364121168    7    7    4    2
 0.6083424569933767    7    7    4    4
 0.6250611755800687    7    7    5    5
 -0.005133982548394903    7    7    6    1
 0.06907961562739588    7    7    6    2
 0.04150484478239483    7    7    6    4
 0.5663674117872366    7    7    6    6
 0.09320980410675309    7    7    7    3
 0.6196208754588655    7    7    7    7
 -32.70331749334994    1    1  0  0
 0.5580801971194791    2    1  0  0
 -7.671394249566814    2    2  0  0
 -6.365600199421346    3    3  0  0
 -0.235258627266568    4    1  0  0
 0.4311187616597368    4    2  0  0
 -6.987914400814272    4    4  0  0
 -7.457702629879635    5    5  0  0
 0.3048384065486907    6    1  0  0
 -1.382054064513394    6    2  0  0
 -1.079095626450363    6    4  0  0
 -5.335996211393843    6    6  0  0
 -1.709737479882634    7    3  0  0
 -5.603896345605267    7    7  0  0
 9.195466823271312  0  0  0  0
