 &FCI NORB=  15,NELEC=14,MS2=0,
  ORBSYM=1,1,1,1,1,1,1,1,1,1,1,1,1,1,1,
  ISYM=1,
 &END
 4.742000630221643    1    1    1    1
 -0.1265933868961208    1    1    2    1
 0.5819591682084643    1    1    2    2
 0.5472497742158606    1    1    3    3
 -0.4578853470039545    1    1    4    1
 0.17090171511929    1    1    4    2
 1.062668492459306    1    1    4    4
 0.9038196241026538    1    1    5    5
 -0.01547904192424592    1    1    6    1
 0.06865344849761219    1    1    6    2
 0.01556385253324349    1    1    6    4
 0.9019557836140298    1    1    6    6
 -0.1213358297615624    1    1    7    3
 0.951585967026934    1    1    7    7
 0.0453513669896635    1    1    8    1
 -0.0446850803618059    1    1    8    2
 -0.0398952794300296    1    1    8    4
 -0.0406025354749675    1    1    8    6
 0.2670532825038011    1    1    8    8
 -0.02870382980170995    1    1    9    3
 -0.007275556572189914    1    1    9    7
 0.2524885905399453    1    1    9    9
 0.3057039803326719    1    1   10   10
 0.3836306628007131    1    1   11    5
 0.5509357772126803    1    1   11   11
 0.02969379658160973    1    1   12    1
 0.02957276866710194    1    1   12    2
 -0.03654679218279054    1    1   12    4
 0.3807456965968964    1    1   12    6
 -0.03641206523888842    1    1   12    8
 0.5483251915129392    1    1   12   12
 -0.04693230357668197    1    1   13    3
 0.2751387225580759    1    1   13    7
 0.01968263186504552    1    1   13    9
 0.4183010162012022    1    1   13   13
 -0.228076293953911    1    1   14    1
 0.05863732573320906    1    1   14    2
 0.2618787152802686    1    1   14    4
 0.01364581898988264    1    1   14    6
 -0.06418887355163805    1    1   14    8
 -0.01864248939538859    1    1   14   12
 0.442348862100513    1    1   14   14
 0.02336701934659185    1    1   15    3
 -0.2721453481035151    1    1   15    7
 -0.01436473032806342    1    1   15    9
 -0.1234096768725864    1    1   15   13
 0.4664628600612648    1    1   15   15
 -0.1265933868961208    2    1    1    1
 0.005469476325280468    2    1    2    1
 0.0002738696833562442    2    1    2    2
 0.0004090695037689758    2    1    3    3
 0.01921157146279645    2    1    4    1
 -0.001070576815715682    2    1    4    2
 -0.005498384251247738    2    1    4    4
 -0.002543428620125857    2    1    5    5
 0.002687774714560765    2    1    6    1
 0.0006269040463795898    2    1    6    2
 0.002795032627528478    2    1    6    4
 -0.00241483503290348    2    1    6    6
 0.0003716503571539944    2    1    7    3
 -0.002944655450414026    2    1    7    7
 -0.002111014281145665    2    1    8    1
 7.61885337241406e-05    2    1    8    2
 0.000307614876287074    2    1    8    4
 0.0001956252101998056    2    1    8    6
 0.0001975591187011408    2    1    8    8
 -3.159905766497069e-05    2    1    9    3
 2.544564336804337e-05    2    1    9    7
 8.577694048004713e-05    2    1    9    9
 0.0001814512477231267    2    1   10   10
 -0.002205489793825672    2    1   11    5
 -0.00158813302326689    2    1   11   11
 0.0003339721260928285    2    1   12    1
 0.0003414287630240082    2    1   12    2
 0.002210180307782676    2    1   12    4
 -0.002266526852654787    2    1   12    6
 -0.0001071261631363742    2    1   12    8
 -0.001857669077414795    2    1   12   12
 8.272000423890317e-05    2    1   13    3
 -0.001368144097686138    2    1   13    7
 -0.0001641730970232943    2    1   13    9
 -0.0005131536684544565    2    1   13   13
 0.009650705539998774    2    1   14    1
 -0.0006771251043542853    2    1   14    2
 -0.002717133929266493    2    1   14    4
 0.0006679510991823068    2    1   14    6
 0.0001333935183876923    2    1   14    8
 0.001043426205547381    2    1   14   12
 -0.001324821512794015    2    1   14   14
 -0.0003994577797555316    2    1   15    3
 0.001850511544879732    2    1   15    7
 9.671417114887973e-05    2    1   15    9
 0.001120795020612464    2    1   15   13
 -0.001083590385971066    2    1   15   15
 0.5819591682084643    2    2    1    1
 0.000273869683356248    2    2    2    1
 0.8967064054571173    2    2    2    2
 0.9189802872317675    2    2    3    3
 -0.001301415245025938    2    2    4    1
 -0.1207501510866448    2    2    4    2
 0.5818796875600093    2    2    4    4
 0.4752777988693514    2    2    5    5
 0.00845707763273499    2    2    6    1
 -0.03312528833851103    2    2    6    2
 0.09441836259784631    2    2    6    4
 0.500138434034169    2    2    6    6
 0.0832409161821476    2    2    7    3
 0.548800652729649    2    2    7    7
 -0.0004582847343895414    2    2    8    1
 -0.06551738029713018    2    2    8    2
 0.0140789147069322    2    2    8    4
 0.01096873574003659    2    2    8    6
 0.3021866109945394    2    2    8    8
 -0.07345713624020009    2    2    9    3
 -0.01715582842137263    2    2    9    7
 0.2893829898510276    2    2    9    9
 0.3313994215106946    2    2   10   10
 0.08418629138405662    2    2   11    5
 0.3470652610617215    2    2   11   11
 0.006566664006752766    2    2   12    1
 -0.02696147850790814    2    2   12    2
 0.03875774993632173    2    2   12    4
 0.09412732057995134    2    2   12    6
 -0.0195161613107751    2    2   12    8
 0.3537104568023665    2    2   12   12
 0.03763722255452256    2    2   13    3
 0.09004000183270622    2    2   13    7
 -0.009535419935162492    2    2   13    9
 0.3651610087859349    2    2   13   13
 -0.001371694463622617    2    2   14    1
 -0.01043251379399854    2    2   14    2
 0.05020417421831773    2    2   14    4
 -0.006949305674452063    2    2   14    6
 -0.02289384223382083    2    2   14    8
 0.02249342373313445    2    2   14   12
 0.3237207861444933    2    2   14   14
 -0.05624597973446731    2    2   15    3
 -0.07059006843561437    2    2   15    7
 0.0307849943677693    2    2   15    9
 -0.0001183168357942119    2    2   15   13
 0.3927696387618028    2    2   15   15
 0.0006046211276454885    3    1    3    1
 0.002423767223829628    3    1    3    2
 0.0007399920602518917    3    1    4    3
 1.646411469379211e-05    3    1    6    3
 -0.003462962637538972    3    1    7    1
 -0.001598283302688933    3    1    7    2
 -0.005049040009491289    3    1    7    4
 0.0001692352311282622    3    1    7    6
 -0.0003035151085657522    3    1    8    3
 0.0004978687408588321    3    1    8    7
 -0.0001465804519129735    3    1    9    1
 -0.0002039950230583886    3    1    9    2
 -2.098821621255149e-05    3    1    9    4
 -0.0002498202238923033    3    1    9    6
 0.0004716246153826461    3    1    9    8
 -0.0006814292928259229    3    1   10    5
 0.000280793278485131    3    1   11   10
 8.664074881116891e-05    3    1   12    3
 -5.878635933628626e-05    3    1   12    7
 0.0002488553800683984    3    1   12    9
 -0.001800596653399191    3    1   13    1
 -0.0005823377007498805    3    1   13    2
 -0.002099171997809882    3    1   13    4
 -0.0005258520552198372    3    1   13    6
 0.0001793334352742831    3    1   13    8
 0.0004065170830676937    3    1   13   12
 0.0002874638840863463    3    1   14    3
 -0.001671046307788873    3    1   14    7
 -2.915508903408168e-05    3    1   14    9
 -0.0009473582328905288    3    1   14   13
 0.00226154421984415    3    1   15    1
 0.0004230975149052788    3    1   15    2
 0.001905906706471    3    1   15    4
 -0.000172012238396609    3    1   15    6
 -0.0001945989632574293    3    1   15    8
 -0.0001250812762641144    3    1   15   12
 0.001410572762331529    3    1   15   14
 0.002423767223829629    3    2    3    1
 0.5965586290849295    3    2    3    2
 -0.182408257394659    3    2    4    3
 -0.08196143152657506    3    2    6    3
 -0.0142109881600054    3    2    7    1
 0.09723975618222896    3    2    7    2
 -0.1601505859901833    3    2    7    4
 -0.02518634122676049    3    2    7    6
 -0.05861867617097628    3    2    8    3
 0.005655860819188214    3    2    8    7
 -0.0003670680635428333    3    2    9    1
 -0.06254249703310964    3    2    9    2
 0.02708812141222602    3    2    9    4
 -0.006974680959160821    3    2    9    6
 0.08567522451455321    3    2    9    8
 -0.05817741826947657    3    2   10    5
 0.06396031764220621    3    2   11   10
 -0.03942122050313843    3    2   12    3
 -0.04230303230948802    3    2   12    7
 0.04064385863587638    3    2   12    9
 -0.006981536962120455    3    2   13    1
 0.04685527949147631    3    2   13    2
 -0.05884662205401686    3    2   13    4
 -0.06604151882207256    3    2   13    6
 -0.02735836523191959    3    2   13    8
 0.05035592433596756    3    2   13   12
 -0.01436494010846639    3    2   14    3
 0.0009822375344432782    3    2   14    7
 0.02642641052413864    3    2   14    9
 -0.01040155300996188    3    2   14   13
 0.007969744932379678    3    2   15    1
 -0.050678160908926    3    2   15    2
 0.02818902756822375    3    2   15    4
 -0.01321147225450449    3    2   15    6
 0.02411771401649588    3    2   15    8
 0.03140741225936228    3    2   15   12
 0.07744344593082855    3    2   15   14
 0.5472497742158605    3    3    1    1
 0.0004090695037689785    3    3    2    1
 0.9189802872317672    3    3    2    2
 0.9451561132487005    3    3    3    3
 -0.0001156990232917784    3    3    4    1
 -0.1373531095641824    3    3    4    2
 0.5698393119213274    3    3    4    4
 0.4601857424485125    3    3    5    5
 0.007073454945417361    3    3    6    1
 -0.04299128381861578    3    3    6    2
 0.09012322410961995    3    3    6    4
 0.484860304288912    3    3    6    6
 0.09440929116188684    3    3    7    3
 0.5407319141499949    3    3    7    7
 -0.0004336474542075838    3    3    8    1
 -0.06790615830209633    3    3    8    2
 0.01641706908590691    3    3    8    4
 0.01238626695836974    3    3    8    6
 0.3030132230984018    3    3    8    8
 -0.07667087609252243    3    3    9    3
 -0.01815506561557648    3    3    9    7
 0.2917625206477609    3    3    9    9
 0.33224875265515    3    3   10   10
 0.07568999958032975    3    3   11    5
 0.3409689463375082    3    3   11   11
 0.005437487347740371    3    3   12    1
 -0.03108042500597139    3    3   12    2
 0.03740794348476033    3    3   12    4
 0.08572615943132669    3    3   12    6
 -0.01733706180542425    3    3   12    8
 0.3487667205590501    3    3   12   12
 0.04357410591488695    3    3   13    3
 0.08564090899130419    3    3   13    7
 -0.009970331370380467    3    3   13    9
 0.3644488151788733    3    3   13   13
 -0.0008129412700392363    3    3   14    1
 -0.01207758315678225    3    3   14    2
 0.04564182616812348    3    3   14    4
 -0.008404955264598763    3    3   14    6
 -0.02009500126858223    3    3   14    8
 0.02183276939499008    3    3   14   12
 0.3200577278652563    3    3   14   14
 -0.0589346961089393    3    3   15    3
 -0.066781752016274    3    3   15    7
 0.03371369202295987    3    3   15    9
 0.001894943746735177    3    3   15   13
 0.3933071201390519    3    3   15   15
 -0.4578853470039545    4    1    1    1
 0.01921157146279646    4    1    2    1
 -0.001301415245025956    4    1    2    2
 -0.0001156990232918085    4    1    3    3
 0.07007316639513593    4    1    4    1
 -0.005253378357076352    4    1    4    2
 -0.01916589299012505    4    1    4    4
 -0.008332729707757371    4    1    5    5
 0.002981343800193118    4    1    6    1
 -0.00101866120694763    4    1    6    2
 -0.0001562207594214959    4    1    6    4
 -0.008618187906084681    4    1    6    6
 0.001863674425586181    4    1    7    3
 -0.009810188587704351    4    1    7    7
 -0.007014772065131285    4    1    8    1
 0.0005969110474984801    4    1    8    2
 0.001896300448151467    4    1    8    4
 0.0009296320562249306    4    1    8    6
 -0.0002127955215438915    4    1    8    8
 4.977018215137977e-05    4    1    9    3
 -0.0003882903889662854    4    1    9    7
 8.982117980858352e-06    4    1    9    9
 3.47955750861952e-05    4    1   10   10
 -0.00665955471152587    4    1   11    5
 -0.005252895916804939    4    1   11   11
 -0.004099181314587259    4    1   12    1
 -0.0003505825275498366    4    1   12    2
 0.001536677244932278    4    1   12    4
 -0.00663629954036666    4    1   12    6
 0.0004925465673057574    4    1   12    8
 -0.005230780484898561    4    1   12   12
 0.0009022240343138177    4    1   13    3
 -0.004967232097452748    4    1   13    7
 -0.0002406640125981957    4    1   13    9
 -0.002504015550775411    4    1   13   13
 0.03500193971913019    4    1   14    1
 -0.002619411734229896    4    1   14    2
 -0.009620800115927985    4    1   14    4
 -0.0004494049843955377    4    1   14    6
 0.0009570426237448168    4    1   14    8
 0.0005837774860818269    4    1   14   12
 -0.004826543598903177    4    1   14   14
 -0.001106041745015693    4    1   15    3
 0.006131908880374262    4    1   15    7
 0.0002610596336927402    4    1   15    9
 0.003184876629797916    4    1   15   13
 -0.003893213949741847    4    1   15   15
 0.1709017151192899    4    2    1    1
 -0.00107057681571568    4    2    2    1
 -0.1207501510866447    4    2    2    2
 -0.1373531095641825    4    2    3    3
 -0.005253378357076324    4    2    4    1
 0.08051500704969512    4    2    4    2
 0.05929274747177096    4    2    4    4
 0.07300784671678777    4    2    5    5
 0.001674726601626821    4    2    6    1
 0.0361149400633197    4    2    6    2
 -0.008079870991606545    4    2    6    4
 0.06438288550115112    4    2    6    6
 -0.06035492499668157    4    2    7    3
 0.05425451638719898    4    2    7    7
 0.0002869850064622466    4    2    8    1
 0.01179307910223092    4    2    8    2
 -0.01077160056332539    4    2    8    4
 -0.009477606062520402    4    2    8    6
 -0.01029133017088876    4    2    8    8
 0.01728747964516147    4    2    9    3
 0.002426798837487169    4    2    9    7
 -0.0123279288627961    4    2    9    9
 -0.006122604350092382    4    2   10   10
 0.0441396770769047    4    2   11    5
 0.02837032479928933    4    2   11   11
 0.001730902726328005    4    2   12    1
 0.01894382221985366    4    2   12    2
 -0.007382732125841148    4    2   12    4
 0.04034335999614617    4    2   12    6
 -0.004558981955230769    4    2   12    8
 0.02393273615814921    4    2   12   12
 -0.02546110412205539    4    2   13    3
 0.02398815154273038    4    2   13    7
 0.007075854689299325    4    2   13    9
 0.001434218779686457    4    2   13   13
 -0.00253571356420229    4    2   14    1
 0.009515220344832653    4    2   14    2
 0.02338637957419129    4    2   14    4
 0.006180979550753767    4    2   14    6
 -0.0112667993887533    4    2   14    8
 -0.00558715811444294    4    2   14   12
 0.01665984666814026    4    2   14   14
 0.01839468865948057    4    2   15    3
 -0.02284301150261007    4    2   15    7
 -0.01464644247782379    4    2   15    9
 -0.01631869468541608    4    2   15   13
 -0.002017731886106064    4    2   15   15
 0.0007399920602518911    4    3    3    1
 -0.182408257394659    4    3    3    2
 0.07165194123454662    4    3    4    3
 0.03066644430801483    4    3    6    3
 -0.002829841243954833    4    3    7    1
 -0.05045404560232324    4    3    7    2
 0.01843946575722651    4    3    7    4
 0.01080874240827597    4    3    7    6
 0.01801764739555333    4    3    8    3
 0.001750080547575381    4    3    8    7
 -0.0001872800168525609    4    3    9    1
 0.02048541136855174    4    3    9    2
 -0.009044380475587199    4    3    9    4
 -0.001056470430934489    4    3    9    6
 -0.02340803671214087    4    3    9    8
 0.01069263986999327    4    3   10    5
 -0.01674053817619348    4    3   11   10
 0.01600479017903285    4    3   12    3
 0.01117617739273115    4    3   12    7
 -0.01040862469727621    4    3   12    9
 -0.001453021779779207    4    3   13    1
 -0.02164217802859231    4    3   13    2
 0.006794083100202595    4    3   13    4
 0.01530323235639566    4    3   13    6
 0.0103844553809554    4    3   13    8
 -0.01183044185091849    4    3   13   12
 0.005220632396625909    4    3   14    3
 -0.00770230490557999    4    3   14    7
 -0.009609613926399925    4    3   14    9
 -0.001749417895162122    4    3   14   13
 0.001790786101120681    4    3   15    1
 0.01866379858610634    4    3   15    2
 -0.0007561079516109296    4    3   15    4
 0.002386493031805009    4    3   15    6
 -0.01041572505407506    4    3   15    8
 -0.01124430127633948    4    3   15   12
 -0.01539689861617193    4    3   15   14
 1.062668492459306    4    4    1    1
 -0.005498384251247739    4    4    2    1
 0.5818796875600095    4    4    2    2
 0.5698393119213274    4    4    3    3
 -0.01916589299012496    4    4    4    1
 0.05929274747177098    4    4    4    2
 0.7421460182511385    4    4    4    4
 0.664274331561137    4    4    5    5
 -9.086547640911277e-05    4    4    6    1
 0.02618084380915979    4    4    6    2
 0.009120810925625692    4    4    6    4
 0.6597867778306098    4    4    6    6
 -0.0486884183028565    4    4    7    3
 0.6853461012517195    4    4    7    7
 0.001994906928505037    4    4    8    1
 -0.03622156907546984    4    4    8    2
 -0.007819732620902456    4    4    8    4
 -0.01582397811324071    4    4    8    6
 0.2644175552423899    4    4    8    8
 -0.03103228939323476    4    4    9    3
 -0.01689675768677787    4    4    9    7
 0.2549448340892127    4    4    9    9
 0.3045695051895154    4    4   10   10
 0.2094400246036921    4    4   11    5
 0.419456197877049    4    4   11   11
 0.00175703118802876    4    4   12    1
 0.008443116760031958    4    4   12    2
 -0.01556241561233199    4    4   12    4
 0.2092625090637406    4    4   12    6
 -0.02107408327519036    4    4   12    8
 0.4203045644844109    4    4   12   12
 -0.01430443274651886    4    4   13    3
 0.1494361333210297    4    4   13    7
 0.0122505289039905    4    4   13    9
 0.3576755428141532    4    4   13   13
 -0.01023255851050678    4    4   14    1
 0.01706672742126022    4    4   14    2
 0.1127034237194588    4    4   14    4
 0.003387226528110374    4    4   14    6
 -0.04579264943273527    4    4   14    8
 -0.01107216885421367    4    4   14   12
 0.3652526274757529    4    4   14   14
 -0.006292500112708368    4    4   15    3
 -0.1300859407737006    4    4   15    7
 -0.004599002754240679    4    4   15    9
 -0.05237866922575569    4    4   15   13
 0.3858926932359387    4    4   15   15
 0.01745840232475998    5    1    5    1
 0.007349185040729773    5    1    5    2
 0.02522603976108312    5    1    5    4
 0.0007295826155097622    5    1    6    5
 -0.0005713164454256737    5    1    8    5
 -0.0013237803476742    5    1   10    3
 0.002233664729183319    5    1   10    7
 -0.001533287659415921    5    1   10    9
 0.01407302408886426    5    1   11    1
 0.003746508464887758    5    1   11    2
 0.0157899676230946    5    1   11    4
 -3.077309955704783e-05    5    1   11    6
 -0.002616318416401187    5    1   11    8
 -0.0008798545370314441    5    1   12    5
 -0.001459073899861311    5    1   12   11
 0.0006613519143354126    5    1   13   10
 0.007195677512178373    5    1   14    5
 0.008194347980501393    5    1   14   11
 0.00115518996044221    5    1   15   10
 0.007349185040729774    5    2    5    1
 0.01628848591623307    5    2    5    2
 0.04105885419700113    5    2    5    4
 0.006150972285593863    5    2    6    5
 0.003551356706941324    5    2    8    5
 -0.007874588473133029    5    2   10    3
 0.006445848355962205    5    2   10    7
 -0.009054543618256014    5    2   10    9
 0.00563539644850124    5    2   11    1
 0.002854737028944492    5    2   11    2
 0.02021202781226836    5    2   11    4
 0.001604153524578423    5    2   11    6
 -0.009855852607297896    5    2   11    8
 0.002442249300459333    5    2   12    5
 -0.0009067358909537776    5    2   12   11
 0.002501795098119665    5    2   13   10
 0.001425892803160764    5    2   14    5
 0.01397513941965346    5    2   14   11
 0.006659882661275438    5    2   15   10
 0.004905086385834561    5    3    5    3
 -0.009535124395586233    5    3    7    5
 0.001718025131646115    5    3    9    5
 -8.484409051000421e-05    5    3   10    1
 -0.005129753001676326    5    3   10    2
 -0.001966835098751554    5    3   10    4
 7.662145635873772e-05    5    3   10    6
 -0.003548050900514595    5    3   10    8
 -0.0009109488814947068    5    3   11    3
 -0.004248984344108987    5    3   11    7
 -0.002831869232178275    5    3   11    9
 -0.001604005917687701    5    3   12   10
 -0.003600236686233341    5    3   13    5
 -0.001561861994482513    5    3   13   11
 0.001743241854309458    5    3   14   10
 7.517786877174232e-05    5    3   15    5
 0.003085643276111862    5    3   15   11
 0.02522603976108313    5    4    5    1
 0.04105885419700114    5    4    5    2
 0.1296743977278144    5    4    5    4
 0.002520672126471108    5    4    6    5
 0.006642721734723505    5    4    8    5
 -0.01169265772686826    5    4   10    3
 0.01816804010979215    5    4   10    7
 -0.01774614538542454    5    4   10    9
 0.01950687209647618    5    4   11    1
 0.01433476418286816    5    4   11    2
 0.06709890559536623    5    4   11    4
 -0.001960028237485563    5    4   11    6
 -0.02096067992691016    5    4   11    8
 -0.001326693719493476    5    4   12    5
 -0.00862785244004215    5    4   12   11
 0.004372897671967585    5    4   13   10
 0.01113163340405538    5    4   14    5
 0.04131605330355051    5    4   14   11
 0.01594447662218586    5    4   15   10
 0.9038196241026542    5    5    1    1
 -0.002543428620125859    5    5    2    1
 0.4752777988693514    5    5    2    2
 0.4601857424485124    5    5    3    3
 -0.008332729707757374    5    5    4    1
 0.07300784671678782    5    5    4    2
 0.6642743315611372    5    5    4    4
 0.6447941888793161    5    5    5    5
 0.0004853166429723019    5    5    6    1
 0.0312628050680354    5    5    6    2
 0.009426436985418727    5    5    6    4
 0.5794769233163876    5    5    6    6
 -0.05447350914613626    5    5    7    3
 0.6005648624783014    5    5    7    7
 0.0009143137250400887    5    5    8    1
 -0.0230373953893118    5    5    8    2
 -0.007275090160941116    5    5    8    4
 -0.01230420679329779    5    5    8    6
 0.2562697459580453    5    5    8    8
 -0.017960132815089    5    5    9    3
 -0.01407427173540952    5    5    9    7
 0.2447737802063932    5    5    9    9
 0.2982781184990593    5    5   10   10
 0.1961218953935792    5    5   11    5
 0.4110588796216841    5    5   11   11
 0.001195639498298966    5    5   12    1
 0.01164640093063714    5    5   12    2
 -0.01237442817945478    5    5   12    4
 0.1701305914162371    5    5   12    6
 -0.01947149476395445    5    5   12    8
 0.3819064217305848    5    5   12   12
 -0.01862262038893088    5    5   13    3
 0.1231711807600998    5    5   13    7
 0.009841782617708896    5    5   13    9
 0.3304712686839456    5    5   13   13
 -0.004759799113150399    5    5   14    1
 0.01437267580086338    5    5   14    2
 0.09276663177723363    5    5   14    4
 0.002412468983278912    5    5   14    6
 -0.046381841556061    5    5   14    8
 -0.009758174811811803    5    5   14   12
 0.3489424761185191    5    5   14   14
 -0.0008616197271915007    5    5   15    3
 -0.1034120173266159    5    5   15    7
 -0.01081299205340696    5    5   15    9
 -0.04155809992694791    5    5   15   13
 0.3558529252531062    5    5   15   15
 -0.01547904192424591    6    1    1    1
 0.002687774714560766    6    1    2    1
 0.008457077632734988    6    1    2    2
 0.007073454945417361    6    1    3    3
 0.002981343800193118    6    1    4    1
 0.001674726601626819    6    1    4    2
 -9.086547640911591e-05    6    1    4    4
 0.0004853166429723065    6    1    5    5
 0.01806924623787631    6    1    6    1
 0.007213173890934828    6    1    6    2
 0.02514330526165097    6    1    6    4
 0.001596009861206457    6    1    6    6
 0.0005665198284123059    6    1    7    3
 -0.001885270370793704    6    1    7    7
 -0.002095718964644407    6    1    8    1
 -0.001171681872924209    6    1    8    2
 -0.001725378195960119    6    1    8    4
 -0.0006512655091560979    6    1    8    6
 0.002299490223380388    6    1    8    8
 -0.0008982273236228272    6    1    9    3
 0.0009664614452399296    6    1    9    7
 0.000818208991636842    6    1    9    9
 0.001414681243686804    6    1   10   10
 -0.001178994436464871    6    1   11    5
 0.0002676721412568597    6    1   11   11
 0.01382023204544974    6    1   12    1
 0.003442291851098206    6    1   12    2
 0.01576955086786255    6    1   12    4
 -0.002278876813031008    6    1   12    6
 -0.002160904177641222    6    1   12    8
 -0.002596616683785367    6    1   12   12
 -0.0007850495631844445    6    1   13    3
 0.000293163339652847    6    1   13    7
 -0.0009932482153253495    6    1   13    9
 0.001650686200539229    6    1   13   13
 0.002043301627516354    6    1   14    1
 0.0005487807838314288    6    1   14    2
 2.411737198546547e-05    6    1   14    4
 0.007249535077074419    6    1   14    6
 -0.0011147082959376    6    1   14    8
 0.007793881241178512    6    1   14   12
 0.0003546423496107681    6    1   14   14
 -0.001198356271693461    6    1   15    3
 0.001041135752673842    6    1   15    7
 0.0003966696757755877    6    1   15    9
 0.001848630777172425    6    1   15   13
 0.0003307574328898276    6    1   15   15
 0.06865344849761225    6    2    1    1
 0.0006269040463795878    6    2    2    1
 -0.03312528833851099    6    2    2    2
 -0.04299128381861582    6    2    3    3
 -0.001018661206947638    6    2    4    1
 0.03611494006331973    6    2    4    2
 0.02618084380915981    6    2    4    4
 0.03126280506803541    6    2    5    5
 0.007213173890934828    6    2    6    1
 0.0301364147884911    6    2    6    2
 0.0316956794258159    6    2    6    4
 0.03855011384379739    6    2    6    6
 -0.02199439561919814    6    2    7    3
 0.01483854600674235    6    2    7    7
 -0.0006141795776127735    6    2    8    1
 0.004380518021374563    6    2    8    2
 -0.006012743457464408    6    2    8    4
 -0.0006031755806402942    6    2    8    6
 0.004425122096462545    6    2    8    8
 0.0051000515440339    6    2    9    3
 0.004661718442001917    6    2    9    7
 -0.004001766999748748    6    2    9    9
 0.0006754387947227035    6    2   10   10
 0.01502000520068109    6    2   11    5
 0.01395865372454466    6    2   11   11
 0.005447724470593639    6    2   12    1
 0.009570164996530897    6    2   12    2
 0.01430012202616963    6    2   12    4
 0.01733232461492901    6    2   12    6
 -0.01030223575832048    6    2   12    8
 0.01049764971018857    6    2   12   12
 -0.01655045796550401    6    2   13    3
 0.01021952712669419    6    2   13    7
 -0.003798460190488407    6    2   13    9
 0.005602088114041375    6    2   13   13
 -0.0003488753519445939    6    2   14    1
 0.002431927262827292    6    2   14    2
 0.009846561581360698    6    2   14    4
 0.003847200720430522    6    2   14    6
 -0.00783338318747138    6    2   14    8
 0.008696923061439418    6    2   14   12
 0.008816334272520904    6    2   14   14
 0.001933693577922116    6    2   15    3
 -0.00850450316111441    6    2   15    7
 -0.006111904500709628    6    2   15    9
 -0.0004413399211088897    6    2   15   13
 0.0003396163156942772    6    2   15   15
 1.646411469379232e-05    6    3    3    1
 -0.0819614315265751    6    3    3    2
 0.03066644430801486    6    3    4    3
 0.01838577390751324    6    3    6    3
 0.0006829294748163342    6    3    7    1
 -0.01918461045766518    6    3    7    2
 0.0190335399947178    6    3    7    4
 -0.004453069925495663    6    3    7    6
 0.008273183586707915    6    3    8    3
 0.001407960366703143    6    3    8    7
 -3.959009916541517e-05    6    3    9    1
 0.008089591873019615    6    3    9    2
 -0.004787741125166647    6    3    9    4
 0.001738756509687782    6    3    9    6
 -0.0121770415541397    6    3    9    8
 0.006710953832491232    6    3   10    5
 -0.008861636025547893    6    3   11   10
 0.005787633028422557    6    3   12    3
 0.002065810264178745    6    3   12    7
 -0.008556889507912193    6    3   12    9
 0.0002646449405610055    6    3   13    1
 -0.01330372721329298    6    3   13    2
 0.005681766750500145    6    3   13    4
 0.005279837097349025    6    3   13    6
 0.001730838958864018    6    3   13    8
 -0.009610257504512823    6    3   13   12
 0.001112426266106593    6    3   14    3
 -0.002611971121579953    6    3   14    7
 -0.004352744424462364    6    3   14    9
 0.001804372743071409    6    3   14   13
 -0.0004041150718285813    6    3   15    1
 0.004497278577663056    6    3   15    2
 -0.002882219702579008    6    3   15    4
 0.001984982032419399    6    3   15    6
 -0.005504950431576893    6    3   15    8
 -0.002637532886446485    6    3   15   12
 -0.01031018005078598    6    3   15   14
 0.01556385253324351    6    4    1    1
 0.002795032627528479    6    4    2    1
 0.09441836259784633    6    4    2    2
 0.09012322410961994    6    4    3    3
 -0.0001562207594214842    6    4    4    1
 -0.008079870991606571    6    4    4    2
 0.009120810925625706    6    4    4    4
 0.009426436985418736    6    4    5    5
 0.02514330526165097    6    4    6    1
 0.0316956794258159    6    4    6    2
 0.12655773342817    6    4    6    4
 0.01282554662030747    6    4    6    6
 0.01643879410046643    6    4    7    3
 -0.006829297311213703    6    4    7    7
 -0.002404846559270095    6    4    8    1
 -0.008579007439586938    6    4    8    2
 -0.004940037479981914    6    4    8    4
 0.006390604987043377    6    4    8    6
 0.02526438266139576    6    4    8    8
 -0.01045333321972206    6    4    9    3
 0.008216828494192427    6    4    9    7
 0.01122307930112341    6    4    9    9
 0.01663570944689981    6    4   10   10