 &FCI NORB=  14,NELEC=20,MS2=0,
  ORBSYM=1,1,1,1,1,1,1,1,1,1,1,1,1,1,
  ISYM=1,
 &END
 10.18754061971309    1    1    1    1
 -1.324481759280418    1    1    2    1
 3.037633206930452    1    1    2    2
 -0.01006197388723689    1    1    3    1
 0.002705311208869989    1    1    3    2
 3.050294442505026    1    1    3    3
 3.052169059986614    1    1    4    4
 3.052169059986613    1    1    5    5
 0.002493789912975091    1    1    6    1
 -0.003411389909925838    1    1    6    2
 0.004340376037873991    1    1    6    3
 0.2620095339159091    1    1    6    6
 0.2952948650816211    1    1    7    1
 -0.3923947881671833    1    1    7    2
 0.02159090452240938    1    1    7    3
 0.007001884998629555    1    1    7    6
 0.7360954810924658    1    1    7    7
 0.04114924255063509    1    1    8    1
 -0.05311527660822735    1    1    8    2
 -0.3690753116347992    1    1    8    3
 -0.008509994327123686    1    1    8    6
 0.0300973869942476    1    1    8    7
 0.6849538996684239    1    1    8    8
 -0.3802480991509813    1    1    9    4
 -0.05871682441099166    1    1    9    5
 0.7004697647775953    1    1    9    9
 0.0587168244109911    1    1   10    4
 -0.3802480991509826    1    1   10    5
 0.7004697647775966    1    1   10   10
 -0.01562660815160978    1    1   11    1
 0.02068501346583569    1    1   11    2
 -0.05541116724896383    1    1   11    3
 -0.008882048401867236    1    1   11    6
 -0.02475011406687398    1    1   11    7
 0.059508182717463    1    1   11    8
 0.1837858643814268    1    1   11   11
 0.1425415073286852    1    1   12    4
 0.0002623970773395264    1    1   12    5
 -0.1521870036195948    1    1   12    9
 0.02321353042708056    1    1   12   10
 0.2673538682496848    1    1   12   12
 -0.000262397077342173    1    1   13    4
 0.1425415073286831    1    1   13    5
 -0.02321353042707828    1    1   13    9
 -0.1521870036195932    1    1   13   10
 0.2673538682496833    1    1   13   13
 -0.09912771176291926    1    1   14    1
 0.133587761121722    1    1   14    2
 -0.1997845544618299    1    1   14    3
 0.00542016944972029    1    1   14    6
 -0.1277398743692244    1    1   14    7
 0.1602140846085525    1    1   14    8
 0.05546855581188409    1    1   14   11
 0.3857102661163651    1    1   14   14
 -1.324481759280416    2    1    1    1
 0.2897218512206782    2    1    2    1
 -0.1033745884850898    2    1    2    2
 0.001432700268951547    2    1    3    1
 -0.001281407929806737    2    1    3    2
 -0.06247408595522425    2    1    3    3
 -0.06253508197609456    2    1    4    4
 -0.06253508197609454    2    1    5    5
 -0.0005547854206939397    2    1    6    1
 0.0001990134087069744    2    1    6    2
 -0.0001546328959131078    2    1    6    3
 1.458162693434371e-05    2    1    6    6
 -0.0655685476280267    2    1    7    1
 0.0236813473094615    2    1    7    2
 -0.0006193483378525598    2    1    7    3
 -4.70451742553034e-05    2    1    7    6
 -0.00544254835784956    2    1    7    7
 -0.008953248244976475    2    1    8    1
 0.003335195244508479    2    1    8    2
 0.01397294133815397    2    1    8    3
 2.783462163559889e-05    2    1    8    6
 -0.0006299728756099769    2    1    8    7
 -0.003251016064803245    2    1    8    8
 0.01438554787373267    2    1    9    4
 0.002221375177006446    2    1    9    5
 -0.003410664506246985    2    1    9    9
 -0.002221375177006423    2    1   10    4
 0.01438554787373271    2    1   10    5
 -0.003410664506247001    2    1   10   10
 0.003500505624109513    2    1   11    1
 -0.001250692921334612    2    1   11    2
 0.002097813224402218    2    1   11    3
 6.69566834735599e-06    2    1   11    6
 0.0003086528583297719    2    1   11    7
 -0.0004333857495663152    2    1   11    8
 -8.032712846074897e-05    2    1   11   11
 -0.005445893686237762    2    1   12    4
 -1.002505595423029e-05    2    1   12    5
 0.001267048495337615    2    1   12    9
 -0.0001932666265815034    2    1   12   10
 -0.0004714651724076309    2    1   12   12
 1.002505595431473e-05    2    1   13    4
 -0.005445893686237688    2    1   13    5
 0.000193266626581484    2    1   13    9
 0.001267048495337604    2    1   13   10
 -0.0004714651724076178    2    1   13   13
 0.02208929218274718    2    1   14    1
 -0.007927242958657535    2    1   14    2
 0.007659016039384413    2    1   14    3
 3.545306453055547e-05    2    1   14    6
 0.00190356071242155    2    1   14    7
 -0.001480819315700036    2    1   14    8
 -0.0003565250757212962    2    1   14   11
 -0.001555547604280454    2    1   14   14
 3.037633206930451    2    2    1    1
 -0.1033745884850898    2    2    2    1
 2.131448601540476    2    2    2    2
 -0.002562487468837887    2    2    3    1
 -0.004768508379726375    2    2    3    2
 2.173553612744321    2    2    3    3
 2.174544517007093    2    2    4    4
 2.174544517007093    2    2    5    5
 0.0001883882681392102    2    2    6    1
 -0.001735060951511528    2    2    6    2
 0.002302389828390212    2    2    6    3
 0.2622517576641359    2    2    6    6
 0.02272513888942285    2    2    7    1
 -0.1945104031975254    2    2    7    2
 0.01149700958507014    2    2    7    3
 0.006606186031047037    2    2    7    6
 0.6910104985743039    2    2    7    7
 0.003600696829118594    2    2    8    1
 -0.0261525283876877    2    2    8    2
 -0.18866453470169    2    2    8    3
 -0.008134394504209549    2    2    8    6
 0.02544036589952051    2    2    8    7
 0.6449004703273318    2    2    8    8
 -0.1943253533750024    2    2    9    4
 -0.03000716552745578    2    2    9    5
 0.6580153518815937    2    2    9    9
 0.03000716552745553    2    2   10    4
 -0.1943253533750032    2    2   10    5
 0.6580153518815949    2    2   10   10
 -0.00113854195625036    2    2   11    1
 0.01012815967211134    2    2   11    2
 -0.02821724092104637    2    2   11    3
 -0.008810851119190031    2    2   11    6
 -0.02210678344445126    2    2   11    7
 0.05393895444920891    2    2   11    8
 0.1828794203995829    2    2   11   11
 0.07240534076700293    2    2   12    4
 0.0001332871397046942    2    2   12    5
 -0.1364372379677261    2    2   12    9
 0.02081117243669061    2    2   12   10
 0.2615414887458311    2    2   12   12
 -0.0001332871397062357    2    2   13    4
 0.07240534076700186    2    2   13    5
 -0.02081117243668856    2    2   13    9
 -0.1364372379677246    2    2   13   10
 0.2615414887458297    2    2   13   13
 -0.007533828334241741    2    2   14    1
 0.06682287934692241    2    2   14    2
 -0.1007520412870225    2    2   14    3
 0.005800303929113331    2    2   14    6
 -0.1116143001472519    2    2   14    7
 0.140762573301501    2    2   14    8
 0.05144278494912266    2    2   14   11
 0.3689917903118008    2    2   14   14
 -0.01006197388723688    3    1    1    1
 0.001432700268951549    3    1    2    1
 -0.002562487468837888    3    1    2    2
 0.1270895256179143    3    1    3    1
 0.1382663713675454    3    1    3    2
 0.001615506083715699    3    1    3    3
 -0.0004704969475477834    3    1    4    4
 -0.0004704969475477832    3    1    5    5
 0.0003176141231526608    3    1    6    1
 0.000233929935112395    3    1    6    2
 -0.000189405788354255    3    1    6    3
 -0.002494697686445    3    1    6    6
 0.001433010258964596    3    1    7    1
 0.00163642236710601    3    1    7    2
 -0.02276917262129263    3    1    7    3
 -0.0001835390291364639    3    1    7    6
 -0.001840438583763735    3    1    7    7
 -0.0285765232826911    3    1    8    1
 -0.01924265305115123    3    1    8    2
 -0.003268422310495613    3    1    8    3
 0.0001679972399715994    3    1    8    6
 0.01353515774773904    3    1    8    7
 0.002993606901921164    3    1    8    8
 9.091204720195499e-05    3    1    9    4
 1.40383784279787e-05    3    1    9    5
 -0.0002730975340267772    3    1    9    9
 -1.403837842797821e-05    3    1   10    4
 9.091204720195548e-05    3    1   10    5
 -0.0002730975340267723    3    1   10   10
 -0.004302999085626586    3    1   11    1
 -0.002921049556707593    3    1   11    2
 0.001184167253075603    3    1   11    3
 0.0001723915235744569    3    1   11    6
 0.001947769376204158    3    1   11    7
 -0.0002154575868337424    3    1   11    8
 -0.001181953669911891    3    1   11   11
 -0.0001297012897868734    3    1   12    4
 -2.387602039934048e-07    3    1   12    5
 -0.0006823831562453354    3    1   12    9
 0.0001040859060476864    3    1   12   10
 -0.00110175697222944    3    1   12   12
 2.387602039938359e-07    3    1   13    4
 -0.0001297012897868733    3    1   13    5
 -0.0001040859060476818    3    1   13    9
 -0.0006823831562453315    3    1   13   10
 -0.001101756972229447    3    1   13   13
 -0.01574348656952563    3    1   14    1
 -0.01050977280974039    3    1   14    2
 0.007819260823981638    3    1   14    3
 -5.414175383003764e-05    3    1   14    6
 0.006362494120458828    3    1   14    7
 -0.001762931007017258    3    1   14    8
 -0.0008669906736619669    3    1   14   11
 -0.005052786180181004    3    1   14   14
 0.002705311208869979    3    2    1    1
 -0.001281407929806737    3    2    2    1
 -0.00476850837972637    3    2    2    2
 0.1382663713675453    3    2    3    1
 0.4416562011386913    3    2    3    2
 0.006408019250580154    3    2    3    3
 0.001566584434623433    3    2    4    4
 0.001566584434623432    3    2    5    5
 0.0003331792955735588    3    2    6    1
 0.0005237258692454526    3    2    6    2
 -0.0004086272287730767    3    2    6    3
 -0.01628431237776578    3    2    6    6
 0.002089867157075301    3    2    7    1
 0.002909921497674647    3    2    7    2
 -0.05033804894502126    3    2    7    3
 -0.0009556356227743818    3    2    7    6
 -0.008978359078693994    3    2    7    7
 -0.02920585224746077    3    2    8    1
 -0.04068249851984733    3    2    8    2
 -0.007628281550177938    3    2    8    3
 0.0009601272278420075    3    2    8    6
 0.06868645612275415    3    2    8    7
 0.01408615784444029    3    2    8    8
 -0.0002952961023442907    3    2    9    4
 -4.55987799263529e-05    3    2    9    5
 -0.00150927201534697    3    2    9    9
 4.559877992635418e-05    3    2   10    4
 -0.0002952961023442907    3    2   10    5
 -0.001509272015346937    3    2   10   10
 -0.004438139965699067    3    2   11    1
 -0.00607627276285522    3    2   11    2
 0.002532591986582326    3    2   11    3
 0.001087446073189269    3    2   11    6
 0.009611663984973661    3    2   11    7
 -0.0007616256325905461    3    2   11    8
 -0.007396566677834544    3    2   11   11
 -0.0004002222240081934    3    2   12    4
 -7.367477995330653e-07    3    2   12    5
 -0.004560456250734033    3    2   12    9
 0.0006956197797441334    3    2   12   10
 -0.007150679169150942    3    2   12   12
 7.367477995303378e-07    3    2   13    4
 -0.0004002222240081976    3    2   13    5
 -0.0006956197797441024    3    2   13    9
 -0.004560456250734008    3    2   13   10
 -0.007150679169150983    3    2   13   13
 -0.01625710010887255    3    2   14    1
 -0.02122819834863579    3    2   14    2
 0.01779762692530496    3    2   14    3
 -0.0005233539571002038    3    2   14    6
 0.0300001519188853    3    2   14    7
 -0.006317720606882907    3    2   14    8
 -0.004050740433274086    3    2   14   11
 -0.02554768722883675    3    2   14   14
 3.050294442505026    3    3    1    1
 -0.06247408595522388    3    3    2    1
 2.17355361274432    3    3    2    2
 0.001615506083715702    3    3    3    1
 0.006408019250580143    3    3    3    2
 2.413139901651062    3    3    3    3
 2.155033500516884    3    3    4    4
 2.155033500516883    3    3    5    5
 0.0001159533273484851    3    3    6    1
 -0.001790503309904664    3    3    6    2
 0.002695398910263018    3    3    6    3
 0.26324655885286    3    3    6    6
 0.01302589388063015    3    3    7    1
 -0.2031160920822875    3    3    7    2
 0.01239568799996569    3    3    7    3
 0.006645214167447619    3    3    7    6
 0.6926899019200462    3    3    7    7
 0.001421650478367081    3    3    8    1
 -0.02838944038961357    3    3    8    2
 -0.2229229653720828    3    3    8    3
 -0.00836130849049482    3    3    8    6
 0.02634952360047697    3    3    8    7
 0.6624255180259353    3    3    8    8
 -0.1972130652625747    3    3    9    4
 -0.03045307774169357    3    3    9    5
 0.6532928429274971    3    3    9    9
 0.0304530777416933    3    3   10    4
 -0.1972130652625755    3    3   10    5
 0.6532928429274982    3    3   10   10
 -0.0007438069293159811    3    3   11    1
 0.01044032559055302    3    3   11    2
 -0.03327362519930921    3    3   11    3
 -0.008938205597729303    3    3   11    6
 -0.02208701724379163    3    3   11    7
 0.05639283181876878    3    3   11    8
 0.1833830649276191    3    3   11   11
 0.07357781834919976    3    3   12    4
 0.0001354454913075384    3    3   12    5
 -0.1347550208330755    3    3   12    9
 0.02055457891877248    3    3   12   10
 0.2611467378764545    3    3   12   12
 -0.0001354454913090864    3    3   13    4
 0.07357781834919866    3    3   13    5
 -0.02055457891877046    3    3   13    9
 -0.1347550208330739    3    3   13   10
 0.2611467378764531    3    3   13   13
 -0.004695095793634346    3    3   14    1
 0.06955818765704105    3    3   14    2
 -0.1186402070527258    3    3   14    3
 0.005799443093859703    3    3   14    6
 -0.1112057525508682    3    3   14    7
 0.1487862649052995    3    3   14    8
 0.05256842976347433    3    3   14   11
 0.373164507726612    3    3   14   14
 0.1272365963739652    4    1    4    1
 0.1384143024486877    4    1    4    2
 0.001042347303268062    4    1    4    3
 -0.0001965107514370488    4    1    6    4
 -0.02282265911721339    4    1    7    4
 -0.003154733234132466    4    1    8    4
 -0.02944865418705749    4    1    9    1
 -0.0198447776311946    4    1    9    2
 -0.0002031039347987319    4    1    9    3
 0.0001602652910196224    4    1    9    6
 0.01391722722781929    4    1    9    7
 0.001658855064987108    4    1    9    8
 0.00454737699123877    4    1   10    1
 0.003064373829212365    4    1   10    2
 3.136272897454623e-05    4    1   10    3
 -2.474770807003887e-05    4    1   10    6
 -0.002149058441707721    4    1   10    7
 -0.0002561556567714913    4    1   10    8
 0.001197952841898775    4    1   11    4
 -0.0005333124006548863    4    1   11    9
 8.235257626632624e-05    4    1   11   10
 0.01115235803507804    4    1   12    1
 0.007388915496876734    4    1   12    2
 -2.024574395573403e-05    4    1   12    3
 7.441854952278836e-05    4    1   12    6
 -0.004656195803407074    4    1   12    7
 -0.001236201625136842    4    1   12    8
 0.0005578176754357418    4    1   12   11
 -2.052978257852184e-05    4    1   13    1
 -1.360186143280402e-05    4    1   13    2
 3.726931293219442e-08    4    1   13    3
 -1.369931485963995e-07    4    1   13    6
 8.571343135348043e-06    4    1   13    7
 2.275657803253292e-06    4    1   13    8
 -1.026856881664933e-06    4    1   13   11
 0.007627301633905818    4    1   14    4
 -0.00381157812688041    4    1   14    9
 0.0005885729977467887    4    1   14   10
 0.001962641971191421    4    1   14   12
 -3.612923188192672e-06    4    1   14   13
 0.1384143024486877    4    2    4    1
 0.4419344197431656    4    2    4    2
 0.002413656869292496    4    2    4    3
 -0.0004511439615311469    4    2    6    4
 -0.05056065151260169    4    2    7    4
 -0.006806811401223074    4    2    8    4
 -0.03016900696052047    4    2    9    1
 -0.04167179046191743    4    2    9    2
 -0.0005226386392877804    4    2    9    3
 0.0008739794796221784    4    2    9    6
 0.07028281930333533    4    2    9    7
 0.00787561633410544    4    2    9    8
 0.004658611807159839    4    2   10    1
 0.006434838751087273    4    2   10    2
 8.0704364550355e-05    4    2   10    3
 -0.0001349574126954663    4    2   10    6
 -0.01085287203107037    4    2   10    7
 -0.001216130159363101    4    2   10    8
 0.002632379497821007    4    2   11    4
 -0.002404669969893559    4    2   11    9
 0.0003713222622384731    4    2   11   10
 0.01139357909396916    4    2   12    1
 0.01525146733995732    4    2   12    2
 -0.0003210983558961609    4    2   12    3
 0.0005508209137673024    4    2   12    6
 -0.02265445248171181    4    2   12    7
 -0.006965295234562114    4    2   12    8
 0.003234914398123228    4    2   12   11
 -2.097383359238381e-05    4    2   13    1
 -2.807561481696171e-05    4    2   13    2
 5.910928802753098e-07    4    2   13    3
 -1.013976915348172e-06    4    2   13    6
 4.170337631034158e-05    4    2   13    7
 1.282204142931039e-05    4    2   13    8
 -5.954981811419981e-06    4    2   13   11
 0.01686868755386347    4    2   14    4
 -0.01803790663308858    4    2   14    9
 0.002785361975199181    4    2   14   10
 0.0102318933099898    4    2   14   12
 -1.883534803666246e-05    4    2   14   13
 0.001042347303268062    4    3    4    1
 0.002413656869292497    4    3    4    2
 0.1295730465568381    4    3    4    3
 0.0001899032682884065    4    3    6    4
 0.0007093107346371798    4    3    7    4
 -0.01572675825157386    4    3    8    4
 -0.0002283223645844882    4    3    9    1
 -0.0002944702942573527    4    3    9    2
 -0.01607763434053395    4    3    9    3
 -0.0001521074338783326    4    3    9    6
 -0.0003683571971582754    4    3    9    7
 0.01109502522453538    4    3    9    8
 3.52568868071752e-05    4    3   10    1
 4.547126100240321e-05    4    3   10    2
 0.002482662331843542    4    3   10    3
 2.348799509210521e-05    4    3   10    6
 5.688066531919663e-05    4    3   10    7
 -0.001713262076520968    4    3   10    8
 -0.002333406821897219    4    3   11    4
 0.001539344596437018    4    3   11    9
 -0.0002377011918766008    4    3   11   10
 7.912422560320632e-05    4    3   12    1
 -7.614585982965315e-05    4    3   12    2
 0.005963255982138273    4    3   12    3
 -4.947402172281181e-05    4    3   12    6
 -0.0003756115073540642    4    3   12    7
 -0.003695278217688421    4    3   12    8
 -0.0007271435292037977    4    3   12   11
 -1.456555773424213e-07    4    3   13    1
 1.401728622428964e-07    4    3   13    2
 -1.097744068012449e-05    4    3   13    3
 9.107409446955423e-08    4    3   13    6
 6.914432405833463e-07    4    3   13    7
 6.802441074578782e-06    4    3   13    8
 1.338559837385727e-06    4    3   13   11
 -0.008199541350551464    4    3   14    4
 0.005241648574439263    4    3   14    9
 -0.0008094003879484675    4    3   14   10
 -0.002179998106137895    4    3   14   12
 4.013042533225453e-06    4    3   14   13
 3.052169059986614    4    4    1    1
 -0.06253508197609434    4    4    2    1
 2.174544517007093    4    4    2    2
 -0.0004704969475477824    4    4    3    1
 0.001566584434623437    4    4    3    2
 2.155033500516883    4    4    3    3
 2.415219956477143    4    4    4    4
 2.155955554225024    4    4    5    5
 0.0001108008275070491    4    4    6    1
 -0.001806427711498128    4    4    6    2
 0.002323212030569564    4    4    6    3
 0.2612679709157903    4    4    6    6
 0.01300969769909582    4    4    7    1
 -0.2033049135300279    4    4    7    2
 0.01098198023643199    4    4    7    3
 0.006586029321000396    4    4    7    6
 0.6927302101349974    4    4    7    7
 0.001868051718679179    4    4    8    1
 -0.0278086131337595    4    4    8    2
 -0.1916878873938704    4    4    8    3
 -0.008036796327364721    4    4    8    6
 0.02709378608849354    4    4    8    7
 0.6407012907446518    4    4    8    8
 -0.2295979316103091    4    4    9    4
 -0.03047660153500708    4    4    9    5
 0.6757650517080538    4    4    9    9
 0.03545385622068926    4    4   10    4
 -0.1973654045244828    4    4   10    5
 -0.003477651784851543    4    4   10    9
 0.6537809095520553    4    4   10   10
 -0.0006775989436668733    4    4   11    1
 0.01052571136245378    4    4   11    2
 -0.02863733458623121    4    4   11    3
 -0.008723736346992816    4    4   11    6
 -0.02202817252120046    4    4   11    7
 0.05329242037696528    4    4   11    8
 0.1825058433938942    4    4   11   11
 0.0855102023997617    4    4   12    4
 0.0001355060406853762    4    4   12    5
 -0.1430259205620229    4    4   12    9
 0.0218311461880206    4    4   12   10
 0.2637301852960025    4    4   12   12
 -0.0001574111822806076    4    4   13    4
 0.07361071048228306    4    4   13    5
 -0.02058862821829794    4    4   13    9
 -0.1350764724107371    4    4   13   10
 -5.852471277238355e-06    4    4   13   12
 0.2605509682907328    4    4   13   13
 -0.004474338986337768    4    4   14    1
 0.06939781385589765    4    4   14    2
 -0.1023036227749167    4    4   14    3
 0.005751809649286878    4    4   14    6
 -0.1120395187368976    4    4   14    7
 0.1387144635957416    4    4   14    8
 0.05115750280292695    4    4   14   11
 0.367730261803514    4    4   14   14
 0.1272365963739651    5    1    5    1
 0.1384143024486876    5    1    5    2
 0.001042347303268062    5    1    5    3
 -0.0001965107514370487    5    1    6    5
 -0.02282265911721337    5    1    7    5
 -0.003154733234132464    5    1    8    5
 -0.004547376991238819    5    1    9    1
 -0.003064373829212396    5    1    9    2
 -3.136272897454605e-05    5    1    9    3
 2.474770807003843e-05    5    1    9    6
 0.002149058441707738    5    1    9    7
 0.0002561556567714969    5    1    9    8
 -0.02944865418705758    5    1   10    1
 -0.01984477763119467    5    1   10    2
 -0.0002031039347987322    5    1   10    3
 0.0001602652910196221    5    1   10    6
 0.01391722722781931    5    1   10    7
 0.001658855064987114    5    1   10    8
 0.001197952841898775    5    1   11    5
 -8.235257626632887e-05    5    1   11    9
 -0.000533312400654889    5    1   11   10
 2.052978257835004e-05    5    1   12    1
 1.360186143267271e-05    5    1   12    2
 -3.726931293335752e-08    5    1   12    3
 1.369931485970906e-07    5    1   12    6
 -8.57134313527871e-06    5    1   12    7
 -2.2756578032444e-06    5    1   12    8
 1.026856881661935e-06    5    1   12   11
 0.01115235803507788    5    1   13    1
 0.007388915496876623    5    1   13    2
 -2.024574395573508e-05    5    1   13    3
 7.441854952278913e-05    5    1   13    6
 -0.004656195803407003    5    1   13    7
 -0.001236201625136833    5    1   13    8
 0.0005578176754357389    5    1   13   11
 0.007627301633905815    5    1   14    5
 -0.0005885729977467973    5    1   14    9
 -0.003811578126880421    5    1   14   10
 3.612923188172669e-06    5    1   14   12
 0.001962641971191402    5    1   14   13
 0.1384143024486876    5    2    5    1
 0.4419344197431653    5    2    5    2
 0.002413656869292495    5    2    5    3
 -0.0004511439615311461    5    2    6    5
 -0.05056065151260161    5    2    7    5
 -0.006806811401223065    5    2    8    5
 -0.004658611807159886    5    2    9    1
 -0.006434838751087342    5    2    9    2
 -8.070436455035318e-05    5    2    9    3
 0.0001349574126954633    5    2    9    6
 0.01085287203107045    5    2    9    7
 0.001216130159363132    5    2    9    8
 -0.03016900696052053    5    2   10    1
 -0.04167179046191759    5    2   10    2
 -0.0005226386392877795    5    2   10    3
 0.0008739794796221761    5    2   10    6
 0.07028281930333541    5    2   10    7
 0.007875616334105467    5    2   10    8
 0.002632379497821005    5    2   11    5
 -0.0003713222622384866    5    2   11    9
 -0.002404669969893576    5    2   11   10
 2.097383359220532e-05    5    2   12    1
 2.807561481664086e-05    5    2   12    2
 -5.910928802780207e-07    5    2   12    3
 1.013976915351662e-06    5    2   12    6
 -4.170337631001005e-05    5    2   12    7
 -1.28220414292695e-05    5    2   12    8
 5.954981811406497e-06    5    2   12   11
 0.01139357909396899    5    2   13    1
 0.01525146733995708    5    2   13    2
 -0.0003210983558961636    5    2   13    3
 0.0005508209137673068    5    2   13    6
 -0.02265445248171146    5    2   13    7
 -0.006965295234562074    5    2   13    8
 0.003234914398123216    5    2   13   11
 0.01686868755386347    5    2   14    5
 -0.002785361975199224    5    2   14    9
 -0.01803790663308863    5    2   14   10
 1.88353480365729e-05    5    2   14   12
 0.01023189330998971    5    2   14   13
 0.001042347303268062    5    3    5    1
 0.002413656869292495    5    3    5    2
 0.129573046556838    5    3    5    3
 0.0001899032682884063    5    3    6    5
 0.0007093107346371794    5    3    7    5
 -0.01572675825157386    5    3    8    5
 -3.525688680717553e-05    5    3    9    1
 -4.547126100240276e-05    5    3    9    2
 -0.002482662331843571    5    3    9    3
 -2.348799509210492e-05    5    3    9    6
 -5.688066531919482e-05    5    3    9    7
 0.001713262076520983    5    3    9    8
 -0.0002283223645844889    5    3   10    1
 -0.000294470294257353    5    3   10    2
 -0.016077634340534    5    3   10    3
 -0.0001521074338783324    5    3   10    6
 -0.0003683571971582739    5    3   10    7
 0.0110950252245354    5    3   10    8
 -0.002333406821897217    5    3   11    5
 0.000237701191876604    5    3   11    9
 0.001539344596437021    5    3   11   10
 1.456555773410746e-07    5    3   12    1
 -1.401728622448441e-07    5    3   12    2
 1.097744068001361e-05    5    3   12    3
 -9.107409447022776e-08    5    3   12    6
 -6.914432405848595e-07    5    3   12    7
 -6.802441074524837e-06    5    3   12    8
 -1.338559837378083e-06    5    3   12   11
 7.91242256032051e-05    5    3   13    1
 -7.614585982965468e-05    5    3   13    2
 0.005963255982138183    5    3   13    3
 -4.947402172281255e-05    5    3   13    6
 -0.0003756115073540661    5    3   13    7
 -0.003695278217688365    5    3   13    8
 -0.0007271435292037898    5    3   13   11
 -0.008199541350551461    5    3   14    5
 0.0008094003879484769    5    3   14    9
 0.005241648574439275    5    3   14   10
 -4.01304253319927e-06    5    3   14   12
 -0.002179998106137868    5    3   14   13
 0.1296322011260592    5    4    5    4
 -0.002488627342841086    5    4    9    4
 -0.01611626354291365    5    4    9    5
 0.003477651784852098    5    4    9    9
 -0.01611626354291374    5    4   10    4
 0.0024886273428412    5    4   10    5
 0.01099207107799988    5    4   10    9
 -0.003477651784852468    5    4   10   10
 1.095257079665125e-05    5    4   12    4
 0.005949745958738829    5    4   12    5
 -0.0006212589848602351    5    4   12    9
 -0.003974724075642173    5    4   12   10
 5.852471276383923e-06    5    4   12   12
 0.005949745958738745    5    4   13    4
 -1.095257079681713e-05    5    4   13    5
 -0.003974724075642089    5    4   13    9
 0.0006212589848603529    5    4   13   10
 0.001589608502634202    5    4   13   12
 -5.852471276580882e-06    5    4   13   13
 3.052169059986613    5    5    1    1
 -0.06253508197609434    5    5    2    1
 2.174544517007093    5    5    2    2
 -0.0004704969475477842    5    5    3    1
 0.001566584434623436    5    5    3    2
 2.155033500516883    5    5    3    3
 2.155955554225024    5    5    4    4
 2.415219956477141    5    5    5    5
 0.0001108008275070495    5    5    6    1
 -0.001806427711498127    5    5    6    2
 0.002323212030569564    5    5    6    3
 0.2612679709157903    5    5    6    6
 0.01300969769909587    5    5    7    1
 -0.2033049135300279    5    5    7    2
 0.010981980236432    5    5    7    3
 0.006586029321000391    5    5    7    6
 0.6927302101349972    5    5    7    7
 0.001868051718679187    5    5    8    1
 -0.02780861313375949    5    5    8    2
 -0.1916878873938704    5    5    8    3
 -0.008036796327364707    5    5    8    6
 0.02709378608849352    5    5    8    7
 0.6407012907446514    5    5    8    8
 -0.1973654045244819    5    5    9    4
 -0.03545385622068953    5    5    9    5
 0.6537809095520539    5    5    9    9
 0.03047660153500682    5    5   10    4
 -0.2295979316103099    5    5   10    5
 0.003477651784853007    5    5   10    9
 0.6757650517080548    5    5   10   10
 -0.0006775989436668709    5    5   11    1
 0.01052571136245379    5    5   11    2
 -0.02863733458623121    5    5   11    3
 -0.008723736346992828    5    5   11    6
 -0.02202817252120051    5    5   11    7
 0.05329242037696524    5    5   11    8
 0.182505843393894    5    5   11   11
 0.07361071048228406    5    5   12    4
 0.0001574111822788161    5    5   12    5
 -0.1350764724107385    5    5   12    9
 0.02058862821830007    5    5   12   10
 0.2605509682907341    5    5   12   12
 -0.0001355060406869263    5    5   13    4
 0.08551020239976032    5    5   13    5
 -0.02183114618801856    5    5   13    9
 -0.1430259205620212    5    5   13   10
 5.852471275784657e-06    5    5   13   12
 0.263730185296001    5    5   13   13
 -0.004474338986337772    5    5   14    1
 0.06939781385589761    5    5   14    2
 -0.1023036227749168    5    5   14    3
 0.005751809649286873    5    5   14    6
 -0.1120395187368975    5    5   14    7
 0.1387144635957416    5    5   14    8
 0.05115750280292691    5    5   14   11
 0.3677302618035139    5    5   14   14
 0.002493789912975087    6    1    1    1
 -0.0005547854206939397    6    1    2    1
 0.0001883882681392101    6    1    2    2
 0.000317614123152661    6    1    3    1
 0.0003331792955735587    6    1    3    2
 0.0001159533273484866    6    1    3    3
 0.0001108008275070494    6    1    4    4
 0.0001108008275070494    6    1    5    5
 1.873589616844309e-06    6    1    6    1
 1.739915381530918e-07    6    1    6    2
 -1.909628753431788e-07    6    1    6    3
 -2.393233884766328e-05    6    1    6    6
 0.0001300992029177792    6    1    7    1
 -3.966231047470248e-05    6    1    7    2
 -5.450238249461407e-05    6    1    7    3
 7.898052127636031e-07    6    1    7    6